<?xml version="1.0"?>
<VTKFile type="UnstructuredGrid">
  <UnstructuredGrid>
    <Piece NumberOfCells="4000" NumberOfPoints="4851">
      <Points>
        <DataArray Name="Coordinates" NumberOfComponents="3" format="ascii" type="Float64">
          0 0 2103.12
          60.96 0 2103.12
          121.92 0 2103.12
          182.88 0 2103.12
          243.84 0 2103.12
          304.8 0 2103.12
          365.76 0 2103.12
          426.72 0 2103.12
          487.68 0 2103.12
          548.64 0 2103.12
          609.6 0 2103.12
          670.56 0 2103.12
          731.52 0 2103.12
          792.48 0 2103.12
          853.44 0 2103.12
          914.4 0 2103.12
          975.36 0 2103.12
          1036.32 0 2103.12
          1097.28 0 2103.12
          1158.24 0 2103.12
          1219.2 0 2103.12
          0 60.96 2103.12
          60.96 60.96 2103.12
          121.92 60.96 2103.12
          182.88 60.96 2103.12
          243.84 60.96 2103.12
          304.8 60.96 2103.12
          365.76 60.96 2103.12
          426.72 60.96 2103.12
          487.68 60.96 2103.12
          548.64 60.96 2103.12
          609.6 60.96 2103.12
          670.56 60.96 2103.12
          731.52 60.96 2103.12
          792.48 60.96 2103.12
          853.44 60.96 2103.12
          914.4 60.96 2103.12
          975.36 60.96 2103.12
          1036.32 60.96 2103.12
          1097.28 60.96 2103.12
          1158.24 60.96 2103.12
          1219.2 60.96 2103.12
          0 121.92 2103.12
          60.96 121.92 2103.12
          121.92 121.92 2103.12
          182.88 121.92 2103.12
          243.84 121.92 2103.12
          304.8 121.92 2103.12
          365.76 121.92 2103.12
          426.72 121.92 2103.12
          487.68 121.92 2103.12
          548.64 121.92 2103.12
          609.6 121.92 2103.12
          670.56 121.92 2103.12
          731.52 121.92 2103.12
          792.48 121.92 2103.12
          853.44 121.92 2103.12
          914.4 121.92 2103.12
          975.36 121.92 2103.12
          1036.32 121.92 2103.12
          1097.28 121.92 2103.12
          1158.24 121.92 2103.12
          1219.2 121.92 2103.12
          0 182.88 2103.12
          60.96 182.88 2103.12
          121.92 182.88 2103.12
          182.88 182.88 2103.12
          243.84 182.88 2103.12
          304.8 182.88 2103.12
          365.76 182.88 2103.12
          426.72 182.88 2103.12
          487.68 182.88 2103.12
          548.64 182.88 2103.12
          609.6 182.88 2103.12
          670.56 182.88 2103.12
          731.52 182.88 2103.12
          792.48 182.88 2103.12
          853.44 182.88 2103.12
          914.4 182.88 2103.12
          975.36 182.88 2103.12
          1036.32 182.88 2103.12
          1097.28 182.88 2103.12
          1158.24 182.88 2103.12
          1219.2 182.88 2103.12
          0 243.84 2103.12
          60.96 243.84 2103.12
          121.92 243.84 2103.12
          182.88 243.84 2103.12
          243.84 243.84 2103.12
          304.8 243.84 2103.12
          365.76 243.84 2103.12
          426.72 243.84 2103.12
          487.68 243.84 2103.12
          548.64 243.84 2103.12
          609.6 243.84 2103.12
          670.56 243.84 2103.12
          731.52 243.84 2103.12
          792.48 243.84 2103.12
          853.44 243.84 2103.12
          914.4 243.84 2103.12
          975.36 243.84 2103.12
          1036.32 243.84 2103.12
          1097.28 243.84 2103.12
          1158.24 243.84 2103.12
          1219.2 243.84 2103.12
          0 304.8 2103.12
          60.96 304.8 2103.12
          121.92 304.8 2103.12
          182.88 304.8 2103.12
          243.84 304.8 2103.12
          304.8 304.8 2103.12
          365.76 304.8 2103.12
          426.72 304.8 2103.12
          487.68 304.8 2103.12
          548.64 304.8 2103.12
          609.6 304.8 2103.12
          670.56 304.8 2103.12
          731.52 304.8 2103.12
          792.48 304.8 2103.12
          853.44 304.8 2103.12
          914.4 304.8 2103.12
          975.36 304.8 2103.12
          1036.32 304.8 2103.12
          1097.28 304.8 2103.12
          1158.24 304.8 2103.12
          1219.2 304.8 2103.12
          0 365.76 2103.12
          60.96 365.76 2103.12
          121.92 365.76 2103.12
          182.88 365.76 2103.12
          243.84 365.76 2103.12
          304.8 365.76 2103.12
          365.76 365.76 2103.12
          426.72 365.76 2103.12
          487.68 365.76 2103.12
          548.64 365.76 2103.12
          609.6 365.76 2103.12
          670.56 365.76 2103.12
          731.52 365.76 2103.12
          792.48 365.76 2103.12
          853.44 365.76 2103.12
          914.4 365.76 2103.12
          975.36 365.76 2103.12
          1036.32 365.76 2103.12
          1097.28 365.76 2103.12
          1158.24 365.76 2103.12
          1219.2 365.76 2103.12
          0 426.72 2103.12
          60.96 426.72 2103.12
          121.92 426.72 2103.12
          182.88 426.72 2103.12
          243.84 426.72 2103.12
          304.8 426.72 2103.12
          365.76 426.72 2103.12
          426.72 426.72 2103.12
          487.68 426.72 2103.12
          548.64 426.72 2103.12
          609.6 426.72 2103.12
          670.56 426.72 2103.12
          731.52 426.72 2103.12
          792.48 426.72 2103.12
          853.44 426.72 2103.12
          914.4 426.72 2103.12
          975.36 426.72 2103.12
          1036.32 426.72 2103.12
          1097.28 426.72 2103.12
          1158.24 426.72 2103.12
          1219.2 426.72 2103.12
          0 487.68 2103.12
          60.96 487.68 2103.12
          121.92 487.68 2103.12
          182.88 487.68 2103.12
          243.84 487.68 2103.12
          304.8 487.68 2103.12
          365.76 487.68 2103.12
          426.72 487.68 2103.12
          487.68 487.68 2103.12
          548.64 487.68 2103.12
          609.6 487.68 2103.12
          670.56 487.68 2103.12
          731.52 487.68 2103.12
          792.48 487.68 2103.12
          853.44 487.68 2103.12
          914.4 487.68 2103.12
          975.36 487.68 2103.12
          1036.32 487.68 2103.12
          1097.28 487.68 2103.12
          1158.24 487.68 2103.12
          1219.2 487.68 2103.12
          0 548.64 2103.12
          60.96 548.64 2103.12
          121.92 548.64 2103.12
          182.88 548.64 2103.12
          243.84 548.64 2103.12
          304.8 548.64 2103.12
          365.76 548.64 2103.12
          426.72 548.64 2103.12
          487.68 548.64 2103.12
          548.64 548.64 2103.12
          609.6 548.64 2103.12
          670.56 548.64 2103.12
          731.52 548.64 2103.12
          792.48 548.64 2103.12
          853.44 548.64 2103.12
          914.4 548.64 2103.12
          975.36 548.64 2103.12
          1036.32 548.64 2103.12
          1097.28 548.64 2103.12
          1158.24 548.64 2103.12
          1219.2 548.64 2103.12
          0 609.6 2103.12
          60.96 609.6 2103.12
          121.92 609.6 2103.12
          182.88 609.6 2103.12
          243.84 609.6 2103.12
          304.8 609.6 2103.12
          365.76 609.6 2103.12
          426.72 609.6 2103.12
          487.68 609.6 2103.12
          548.64 609.6 2103.12
          609.6 609.6 2103.12
          670.56 609.6 2103.12
          731.52 609.6 2103.12
          792.48 609.6 2103.12
          853.44 609.6 2103.12
          914.4 609.6 2103.12
          975.36 609.6 2103.12
          1036.32 609.6 2103.12
          1097.28 609.6 2103.12
          1158.24 609.6 2103.12
          1219.2 609.6 2103.12
          0 670.56 2103.12
          60.96 670.56 2103.12
          121.92 670.56 2103.12
          182.88 670.56 2103.12
          243.84 670.56 2103.12
          304.8 670.56 2103.12
          365.76 670.56 2103.12
          426.72 670.56 2103.12
          487.68 670.56 2103.12
          548.64 670.56 2103.12
          609.6 670.56 2103.12
          670.56 670.56 2103.12
          731.52 670.56 2103.12
          792.48 670.56 2103.12
          853.44 670.56 2103.12
          914.4 670.56 2103.12
          975.36 670.56 2103.12
          1036.32 670.56 2103.12
          1097.28 670.56 2103.12
          1158.24 670.56 2103.12
          1219.2 670.56 2103.12
          0 731.52 2103.12
          60.96 731.52 2103.12
          121.92 731.52 2103.12
          182.88 731.52 2103.12
          243.84 731.52 2103.12
          304.8 731.52 2103.12
          365.76 731.52 2103.12
          426.72 731.52 2103.12
          487.68 731.52 2103.12
          548.64 731.52 2103.12
          609.6 731.52 2103.12
          670.56 731.52 2103.12
          731.52 731.52 2103.12
          792.48 731.52 2103.12
          853.44 731.52 2103.12
          914.4 731.52 2103.12
          975.36 731.52 2103.12
          1036.32 731.52 2103.12
          1097.28 731.52 2103.12
          1158.24 731.52 2103.12
          1219.2 731.52 2103.12
          0 792.48 2103.12
          60.96 792.48 2103.12
          121.92 792.48 2103.12
          182.88 792.48 2103.12
          243.84 792.48 2103.12
          304.8 792.48 2103.12
          365.76 792.48 2103.12
          426.72 792.48 2103.12
          487.68 792.48 2103.12
          548.64 792.48 2103.12
          609.6 792.48 2103.12
          670.56 792.48 2103.12
          731.52 792.48 2103.12
          792.48 792.48 2103.12
          853.44 792.48 2103.12
          914.4 792.48 2103.12
          975.36 792.48 2103.12
          1036.32 792.48 2103.12
          1097.28 792.48 2103.12
          1158.24 792.48 2103.12
          1219.2 792.48 2103.12
          0 853.44 2103.12
          60.96 853.44 2103.12
          121.92 853.44 2103.12
          182.88 853.44 2103.12
          243.84 853.44 2103.12
          304.8 853.44 2103.12
          365.76 853.44 2103.12
          426.72 853.44 2103.12
          487.68 853.44 2103.12
          548.64 853.44 2103.12
          609.6 853.44 2103.12
          670.56 853.44 2103.12
          731.52 853.44 2103.12
          792.48 853.44 2103.12
          853.44 853.44 2103.12
          914.4 853.44 2103.12
          975.36 853.44 2103.12
          1036.32 853.44 2103.12
          1097.28 853.44 2103.12
[...]
      <CellData Scalars="saturation">
        <DataArray Name="pressure" NumberOfComponents="1" format="ascii" type="Float64">
          26301430.6462 26301430.6462 26301430.6462 26301430.6462 26301430.6462 
          26301430.6462 26301430.6462 26301430.6462 26301430.6462 26301430.6462 
          26301430.6462 26301430.6462 26301430.6462 26301430.6462 26301430.6462 
          26301430.6462 26301430.6462 26301430.6462 26301430.6462 26301430.6462 
          26301430.6462 26301430.6462 26301430.6462 26301430.6462 26301430.6462 
          26301430.6462 26301430.6462 26301430.6462 26301430.6462 26301430.6462 
          26301430.6462 26301430.6462 26301430.6462 26301430.6462 26301430.6462 
          26301430.6462 26301430.6462 26301430.6462 26301430.6462 26301430.6462 
          26301430.6462 26301430.6462 26301430.6462 26301430.6462 26301430.6462 
          26301430.6462 26301430.6462 26301430.6462 26301430.6462 26301430.6462 
          26301430.6462 26301430.6462 26301430.6462 26301430.6462 26301430.6462 
          26301430.6462 26301430.6462 26301430.6462 26301430.6462 26301430.6462 
          26301430.6462 26301430.6462 26301430.6462 26301430.6462 26301430.6462 
          26301430.6462 26301430.6462 26301430.6462 26301430.6462 26301430.6462 
          26301430.6462 26301430.6462 26301430.6462 26301430.6462 26301430.6462 
          26301430.6462 26301430.6462 26301430.6462 26301430.6462 26301430.6462 
          26301430.6462 26301430.6462 26301430.6462 26301430.6462 26301430.6462 
          26301430.6462 26301430.6462 26301430.6462 26301430.6462 26301430.6462 
          26301430.6462 26301430.6462 26301430.6462 26301430.6462 26301430.6462 
          26301430.6462 26301430.6462 26301430.6462 26301430.6462 26301430.6462 
          26301430.6462 26301430.6462 26301430.6462 26301430.6462 26301430.6462 
          26301430.6462 26301430.6462 26301430.6462 26301430.6462 26301430.6462 
          26301430.6462 26301430.6462 26301430.6462 26301430.6462 26301430.6462 
          26301430.6462 26301430.6462 26301430.6462 26301430.6462 26301430.6462 
          26301430.6462 26301430.6462 26301430.6462 26301430.6462 26301430.6462 
          26301430.6462 26301430.6462 26301430.6462 26301430.6462 26301430.6462 
          26301430.6462 26301430.6462 26301430.6462 26301430.6462 26301430.6462 
          26301430.6462 26301430.6462 26301430.6462 26301430.6462 26301430.6462 
          26301430.6462 26301430.6462 26301430.6462 26301430.6462 26301430.6462 
          26301430.6462 26301430.6462 26301430.6462 26301430.6462 26301430.6462 
          26301430.6462 26301430.6462 26301430.6462 26301430.6462 26301430.6462 
          26301430.6462 26301430.6462 26301430.6462 26301430.6462 26301430.6462 
          26301430.6462 26301430.6462 26301430.6462 26301430.6462 26301430.6462 
          26301430.6462 26301430.6462 26301430.6462 26301430.6462 26301430.6462 
          26301430.6462 26301430.6462 26301430.6462 26301430.6462 26301430.6462 
          26301430.6462 26301430.6462 26301430.6462 26301430.6462 26301430.6462 
          26301430.6462 26301430.6462 26301430.6462 26301430.6462 26301430.6462 
          26301430.6462 26301430.6462 26301430.6462 26301430.6462 26301430.6462 
          26301430.6462 26301430.6462 26301430.6462 26301430.6462 26301430.6462 
          26301430.6462 26301430.6462 26301430.6462 26301430.6462 26301430.6462 
          26301430.6462 26301430.6462 26301430.6462 26301430.6462 26301430.6462 
          26301430.6462 26301430.6462 26301430.6462 26301430.6462 26301430.6462 
          26301430.6462 26301430.6462 26301430.6462 26301430.6462 26301430.6462 
          26301430.6462 26301430.6462 26301430.6462 26301430.6462 26301430.6462 
          26301430.6462 26301430.6462 26301430.6462 26301430.6462 26301430.6462 
          26301430.6462 26301430.6462 26301430.6462 26301430.6462 26301430.6462 
          26301430.6462 26301430.6462 26301430.6462 26301430.6462 26301430.6462 
          26301430.6462 26301430.6462 26301430.6462 26301430.6462 26301430.6462 
          26301430.6462 26301430.6462 26301430.6462 26301430.6462 26301430.6462 
          26301430.6462 26301430.6462 26301430.6462 26301430.6462 26301430.6462 
          26301430.6462 26301430.6462 26301430.6462 26301430.6462 26301430.6462 
          26301430.6462 26301430.6462 26301430.6462 26301430.6462 26301430.6462 
          26301430.6462 26301430.6462 26301430.6462 26301430.6462 26301430.6462 
          26301430.6462 26301430.6462 26301430.6462 26301430.6462 26301430.6462 
          26301430.6462 26301430.6462 26301430.6462 26301430.6462 26301430.6462 
          26301430.6462 26301430.6462 26301430.6462 26301430.6462 26301430.6462 
          26301430.6462 26301430.6462 26301430.6462 26301430.6462 26301430.6462 
          26301430.6462 26301430.6462 26301430.6462 26301430.6462 26301430.6462 
          26301430.6462 26301430.6462 26301430.6462 26301430.6462 26301430.6462 
          26301430.6462 26301430.6462 26301430.6462 26301430.6462 26301430.6462 
          26301430.6462 26301430.6462 26301430.6462 26301430.6462 26301430.6462 
          26301430.6462 26301430.6462 26301430.6462 26301430.6462 26301430.6462 
          26301430.6462 26301430.6462 26301430.6462 26301430.6462 26301430.6462 
          26301430.6462 26301430.6462 26301430.6462 26301430.6462 26301430.6462 
          26301430.6462 26301430.6462 26301430.6462 26301430.6462 26301430.6462 
          26301430.6462 26301430.6462 26301430.6462 26301430.6462 26301430.6462 
          26301430.6462 26301430.6462 26301430.6462 26301430.6462 26301430.6462 
          26301430.6462 26301430.6462 26301430.6462 26301430.6462 26301430.6462 
          26301430.6462 26301430.6462 26301430.6462 26301430.6462 26301430.6462 
          26301430.6462 26301430.6462 26301430.6462 26301430.6462 26301430.6462 
          26301430.6462 26301430.6462 26301430.6462 26301430.6462 26301430.6462 
          26301430.6462 26301430.6462 26301430.6462 26301430.6462 26301430.6462 
          26301430.6462 26301430.6462 26301430.6462 26301430.6462 26301430.6462 
          26301430.6462 26301430.6462 26301430.6462 26301430.6462 26301430.6462 
          26301430.6462 26301430.6462 26301430.6462 26301430.6462 26301430.6462 
          26301430.6462 26301430.6462 26301430.6462 26301430.6462 26301430.6462 
          26301430.6462 26301430.6462 26301430.6462 26301430.6462 26301430.6462 
          26301430.6462 26301430.6462 26301430.6462 26301430.6462 26301430.6462 
          26301430.6462 26301430.6462 26301430.6462 26301430.6462 26301430.6462 
          26301430.6462 26301430.6462 26301430.6462 26301430.6462 26301430.6462 
          26301430.6462 26301430.6462 26301430.6462 26301430.6462 26301430.6462 
          26301430.6462 26301430.6462 26301430.6462 26301430.6462 26301430.6462 
          26301430.6462 26301430.6462 26301430.6462 26301430.6462 26301430.6462 
          26301430.6462 26301430.6462 26301430.6462 26301430.6462 26301430.6462 
          26301430.6462 26301430.6462 26301430.6462 26301430.6462 26301430.6462 
          26301430.6462 26301430.6462 26301430.6462 26301430.6462 26301430.6462 
          26301430.6462 26301430.6462 26301430.6462 26301430.6462 26301430.6462 
          26301430.6462 26301430.6462 26301430.6462 26301430.6462 26301430.6462 
          26301430.6462 26301430.6462 26301430.6462 26301430.6462 26301430.6462 
          26301430.6462 26301430.6462 26301430.6462 26301430.6462 26301430.6462 
          26301430.6462 26301430.6462 26301430.6462 26301430.6462 26301430.6462 
          26301430.6462 26301430.6462 26301430.6462 26301430.6462 26301430.6462 
          26301430.6462 26301430.6462 26301430.6462 26301430.6462 26301430.6462 
          26301430.6462 26301430.6462 26301430.6462 26301430.6462 26301430.6462 
          26301430.6462 26301430.6462 26301430.6462 26301430.6462 26301430.6462 
          26301430.6462 26301430.6462 26301430.6462 26301430.6462 26301430.6462 
          26301430.6462 26301430.6462 26301430.6462 26301430.6462 26301430.6462 
          26301430.6462 26301430.6462 26301430.6462 26301430.6462 26301430.6462 
          26301430.6462 26301430.6462 26301430.6462 26301430.6462 26301430.6462 
          26301430.6462 26301430.6462 26301430.6462 26301430.6462 26301430.6462 
          26301430.6462 26301430.6462 26301430.6462 26301430.6462 26301430.6462 
          26301430.6462 26301430.6462 26301430.6462 26301430.6462 26301430.6462 
          26301430.6462 26301430.6462 26301430.6462 26301430.6462 26301430.6462 
          26301430.6462 26301430.6462 26301430.6462 26301430.6462 26301430.6462 
          26301430.6462 26301430.6462 26301430.6462 26301430.6462 26301430.6462 
          26301430.6462 26301430.6462 26301430.6462 26301430.6462 26301430.6462 
          26301430.6462 26301430.6462 26301430.6462 26301430.6462 26301430.6462 
          26301430.6462 26301430.6462 26301430.6462 26301430.6462 26301430.6462 
          26301430.6462 26301430.6462 26301430.6462 26301430.6462 26301430.6462 
          26301430.6462 26301430.6462 26301430.6462 26301430.6462 26301430.6462 
          26301430.6462 26301430.6462 26301430.6462 26301430.6462 26301430.6462 
          26301430.6462 26301430.6462 26301430.6462 26301430.6462 26301430.6462 
          26301430.6462 26301430.6462 26301430.6462 26301430.6462 26301430.6462 
          26301430.6462 26301430.6462 26301430.6462 26301430.6462 26301430.6462 
          26301430.6462 26301430.6462 26301430.6462 26301430.6462 26301430.6462 
          26301430.6462 26301430.6462 26301430.6462 26301430.6462 26301430.6462 
          26301430.6462 26301430.6462 26301430.6462 26301430.6462 26301430.6462 
          26301430.6462 26301430.6462 26301430.6462 26301430.6462 26301430.6462 
          26301430.6462 26301430.6462 26301430.6462 26301430.6462 26301430.6462 
          26301430.6462 26301430.6462 26301430.6462 26301430.6462 26301430.6462 
          26301430.6462 26301430.6462 26301430.6462 26301430.6462 26301430.6462 
          26301430.6462 26301430.6462 26301430.6462 26301430.6462 26301430.6462 
          26301430.6462 26301430.6462 26301430.6462 26301430.6462 26301430.6462 
          26301430.6462 26301430.6462 26301430.6462 26301430.6462 26301430.6462 
          26301430.6462 26301430.6462 26301430.6462 26301430.6462 26301430.6462 
          26301430.6462 26301430.6462 26301430.6462 26301430.6462 26301430.6462 
          26301430.6462 26301430.6462 26301430.6462 26301430.6462 26301430.6462 
          26301430.6462 26301430.6462 26301430.6462 26301430.6462 26301430.6462 
          26301430.6462 26301430.6462 26301430.6462 26301430.6462 26301430.6462 
          26301430.6462 26301430.6462 26301430.6462 26301430.6462 26301430.6462 
          26301430.6462 26301430.6462 26301430.6462 26301430.6462 26301430.6462 
          26301430.6462 26301430.6462 26301430.6462 26301430.6462 26301430.6462 
          26301430.6462 26301430.6462 26301430.6462 26301430.6462 26301430.6462 
          26301430.6462 26301430.6462 26301430.6462 26301430.6462 26301430.6462 
          26301430.6462 26301430.6462 26301430.6462 26301430.6462 26301430.6462 
          26301430.6462 26301430.6462 26301430.6462 26301430.6462 26301430.6462 
          26301430.6462 26301430.6462 26301430.6462 26301430.6462 26301430.6462 
          26301430.6462 26301430.6462 26301430.6462 26301430.6462 26301430.6462 
          26301430.6462 26301430.6462 26301430.6462 26301430.6462 26301430.6462 
          26301430.6462 26301430.6462 26301430.6462 26301430.6462 26301430.6462 
          26301430.6462 26301430.6462 26301430.6462 26301430.6462 26301430.6462 
          26301430.6462 26301430.6462 26301430.6462 26301430.6462 26301430.6462 
          26301430.6462 26301430.6462 26301430.6462 26301430.6462 26301430.6462 
          26301430.6462 26301430.6462 26301430.6462 26301430.6462 26301430.6462 
          26301430.6462 26301430.6462 26301430.6462 26301430.6462 26301430.6462 
          26301430.6462 26301430.6462 26301430.6462 26301430.6462 26301430.6462 
          26301430.6462 26301430.6462 26301430.6462 26301430.6462 26301430.6462 
          26301430.6462 26301430.6462 26301430.6462 26301430.6462 26301430.6462 
          26301430.6462 26301430.6462 26301430.6462 26301430.6462 26301430.6462 
          26301430.6462 26301430.6462 26301430.6462 26301430.6462 26301430.6462 
          26301430.6462 26301430.6462 26301430.6462 26301430.6462 26301430.6462 
          26301430.6462 26301430.6462 26301430.6462 26301430.6462 26301430.6462 
          26301430.6462 26301430.6462 26301430.6462 26301430.6462 26301430.6462 
          26301430.6462 26301430.6462 26301430.6462 26301430.6462 26301430.6462 
          26301430.6462 26301430.6462 26301430.6462 26301430.6462 26301430.6462 
          26301430.6462 26301430.6462 26301430.6462 26301430.6462 26301430.6462 
          26301430.6462 26301430.6462 26301430.6462 26301430.6462 26301430.6462 
          26301430.6462 26301430.6462 26301430.6462 26301430.6462 26301430.6462 
          26301430.6462 26301430.6462 26301430.6462 26301430.6462 26301430.6462 
          26301430.6462 26301430.6462 26301430.6462 26301430.6462 26301430.6462 
          26301430.6462 26301430.6462 26301430.6462 26301430.6462 26301430.6462 
          26301430.6462 26301430.6462 26301430.6462 26301430.6462 26301430.6462 
          26301430.6462 26301430.6462 26301430.6462 26301430.6462 26301430.6462 
          26301430.6462 26301430.6462 26301430.6462 26301430.6462 26301430.6462 
          26301430.6462 26301430.6462 26301430.6462 26301430.6462 26301430.6462 
          26301430.6462 26301430.6462 26301430.6462 26301430.6462 26301430.6462 
          26301430.6462 26301430.6462 26301430.6462 26301430.6462 26301430.6462 
          26301430.6462 26301430.6462 26301430.6462 26301430.6462 26301430.6462 
          26301430.6462 26301430.6462 26301430.6462 26301430.6462 26301430.6462 
          26301430.6462 26301430.6462 26301430.6462 26301430.6462 26301430.6462 
          26301430.6462 26301430.6462 26301430.6462 26301430.6462 26301430.6462 
          26301430.6462 26301430.6462 26301430.6462 26301430.6462 26301430.6462 
          26301430.6462 26301430.6462 26301430.6462 26301430.6462 26301430.6462 
          26301430.6462 26301430.6462 26301430.6462 26301430.6462 26301430.6462 
          26301430.6462 26301430.6462 26301430.6462 26301430.6462 26301430.6462 
          26301430.6462 26301430.6462 26301430.6462 26301430.6462 26301430.6462 
          26301430.6462 26301430.6462 26301430.6462 26301430.6462 26301430.6462 
          26301430.6462 26301430.6462 26301430.6462 26301430.6462 26301430.6462 
          26301430.6462 26301430.6462 26301430.6462 26301430.6462 26301430.6462 
          26301430.6462 26301430.6462 26301430.6462 26301430.6462 26301430.6462 
          26301430.6462 26301430.6462 26301430.6462 26301430.6462 26301430.6462 
          26301430.6462 26301430.6462 26301430.6462 26301430.6462 26301430.6462 
          26301430.6462 26301430.6462 26301430.6462 26301430.6462 26301430.6462 
          26301430.6462 26301430.6462 26301430.6462 26301430.6462 26301430.6462 
          26301430.6462 26301430.6462 26301430.6462 26301430.6462 26301430.6462 
          26301430.6462 26301430.6462 26301430.6462 26301430.6462 26301430.6462 
          26301430.6462 26301430.6462 26301430.6462 26301430.6462 26301430.6462 
          26301430.6462 26301430.6462 26301430.6462 26301430.6462 26301430.6462 
          26301430.6462 26301430.6462 26301430.6462 26301430.6462 26301430.6462 
          26301430.6462 26301430.6462 26301430.6462 26301430.6462 26301430.6462 
          26301430.6462 26301430.6462 26301430.6462 26301430.6462 26301430.6462 
          26301430.6462 26301430.6462 26301430.6462 26301430.6462 26301430.6462 
          26301430.6462 26301430.6462 26301430.6462 26301430.6462 26301430.6462 
          26301430.6462 26301430.6462 26301430.6462 26301430.6462 26301430.6462 
          26301430.6462 26301430.6462 26301430.6462 26301430.6462 26301430.6462 
          26301430.6462 26301430.6462 26301430.6462 26301430.6462 26301430.6462 
          26301430.6462 26301430.6462 26301430.6462 26301430.6462 26301430.6462 
          26301430.6462 26301430.6462 26301430.6462 26301430.6462 26301430.6462 
          26301430.6462 26301430.6462 26301430.6462 26301430.6462 26301430.6462 
          26301430.6462 26301430.6462 26301430.6462 26301430.6462 26301430.6462 
          26301430.6462 26301430.6462 26301430.6462 26301430.6462 26301430.6462 
          26301430.6462 26301430.6462 26301430.6462 26301430.6462 26301430.6462 
          26301430.6462 26301430.6462 26301430.6462 26301430.6462 26301430.6462 
          26301430.6462 26301430.6462 26301430.6462 26301430.6462 26301430.6462 
          26301430.6462 26301430.6462 26301430.6462 26301430.6462 26301430.6462 
          26301430.6462 26301430.6462 26301430.6462 26301430.6462 26301430.6462 
          26301430.6462 26301430.6462 26301430.6462 26301430.6462 26301430.6462 
          26301430.6462 26301430.6462 26301430.6462 26301430.6462 26301430.6462 
          26301430.6462 26301430.6462 26301430.6462 26301430.6462 26301430.6462 
          26301430.6462 26301430.6462 26301430.6462 26301430.6462 26301430.6462 
          26301430.6462 26301430.6462 26301430.6462 26301430.6462 26301430.6462 
          26301430.6462 26301430.6462 26301430.6462 26301430.6462 26301430.6462 
          26301430.6462 26301430.6462 26301430.6462 26301430.6462 26301430.6462 
          26301430.6462 26301430.6462 26301430.6462 26301430.6462 26301430.6462 
          26301430.6462 26301430.6462 26301430.6462 26301430.6462 26301430.6462 
          26301430.6462 26301430.6462 26301430.6462 26301430.6462 26301430.6462 
          26301430.6462 26301430.6462 26301430.6462 26301430.6462 26301430.6462 
          26301430.6462 26301430.6462 26301430.6462 26301430.6462 26301430.6462 
          26301430.6462 26301430.6462 26301430.6462 26301430.6462 26301430.6462 
          26301430.6462 26301430.6462 26301430.6462 26301430.6462 26301430.6462 
          26301430.6462 26301430.6462 26301430.6462 26301430.6462 26301430.6462 
          26301430.6462 26301430.6462 26301430.6462 26301430.6462 26301430.6462 
          26301430.6462 26301430.6462 26301430.6462 26301430.6462 26301430.6462 
          26301430.6462 26301430.6462 26301430.6462 26301430.6462 26301430.6462 
          26301430.6462 26301430.6462 26301430.6462 26301430.6462 26301430.6462 
          26301430.6462 26301430.6462 26301430.6462 26301430.6462 26301430.6462 
          26301430.6462 26301430.6462 26301430.6462 26301430.6462 26301430.6462 
          26301430.6462 26301430.6462 26301430.6462 26301430.6462 26301430.6462 
          26301430.6462 26301430.6462 26301430.6462 26301430.6462 26301430.6462 
          26301430.6462 26301430.6462 26301430.6462 26301430.6462 26301430.6462 
          26301430.6462 26301430.6462 26301430.6462 26301430.6462 26301430.6462 
          26301430.6462 26301430.6462 26301430.6462 26301430.6462 26301430.6462 
          26301430.6462 26301430.6462 26301430.6462 26301430.6462 26301430.6462 
          26301430.6462 26301430.6462 26301430.6462 26301430.6462 26301430.6462 
          26301430.6462 26301430.6462 26301430.6462 26301430.6462 26301430.6462 
          26301430.6462 26301430.6462 26301430.6462 26301430.6462 26301430.6462 
          26301430.6462 26301430.6462 26301430.6462 26301430.6462 26301430.6462 
          26301430.6462 26301430.6462 26301430.6462 26301430.6462 26301430.6462 
          26301430.6462 26301430.6462 26301430.6462 26301430.6462 26301430.6462 
          26301430.6462 26301430.6462 26301430.6462 26301430.6462 26301430.6462 
          26301430.6462 26301430.6462 26301430.6462 26301430.6462 26301430.6462 
          26301430.6462 26301430.6462 26301430.6462 26301430.6462 26301430.6462 
          26301430.6462 26301430.6462 26301430.6462 26301430.6462 26301430.6462 
          26301430.6462 26301430.6462 26301430.6462 26301430.6462 26301430.6462 
          26301430.6462 26301430.6462 26301430.6462 26301430.6462 26301430.6462 