<?xml version="1.0"?>
<VTKFile type="UnstructuredGrid">
  <UnstructuredGrid>
    <Piece NumberOfCells="9000" NumberOfPoints="10400">
      <Points>
        <DataArray Name="Coordinates" NumberOfComponents="3" format="ascii" type="Float64">
          0 0 2735.13804
          0 0 2741.23404
          0 0 2745.80604
          0 0 2753.73084
          0 0 2758.30284
          0 0 2763.17964
          0 0 2767.44684
          0 0 2769.88524
          0 0 2772.32364
          0 0 2777.81004
          0 0 2781.46764
          0 0 2787.25884
          0 0 2792.74524
          0 0 2798.84124
          0 0 2814.08124
          0 0 2844.56124
          91.44 0 2751.26196
          91.44 0 2757.35796
          91.44 0 2761.92996
          91.44 0 2769.85476
          91.44 0 2774.42676
          91.44 0 2779.30356
          91.44 0 2783.57076
          91.44 0 2786.00916
          91.44 0 2788.44756
          91.44 0 2793.93396
          91.44 0 2797.59156
          91.44 0 2803.38276
          91.44 0 2808.86916
          91.44 0 2814.96516
          91.44 0 2830.20516
          91.44 0 2860.68516
          182.88 0 2767.38588
          182.88 0 2773.48188
          182.88 0 2778.05388
          182.88 0 2785.97868
          182.88 0 2790.55068
          182.88 0 2795.42748
          182.88 0 2799.69468
          182.88 0 2802.13308
          182.88 0 2804.57148
          182.88 0 2810.05788
          182.88 0 2813.71548
          182.88 0 2819.50668
          182.88 0 2824.99308
          182.88 0 2831.08908
          182.88 0 2846.32908
          182.88 0 2876.80908
          274.32 0 2783.5098
          274.32 0 2789.6058
          274.32 0 2794.1778
          274.32 0 2802.1026
          274.32 0 2806.6746
          274.32 0 2811.5514
          274.32 0 2815.8186
          274.32 0 2818.257
          274.32 0 2820.6954
          274.32 0 2826.1818
          274.32 0 2829.8394
          274.32 0 2835.6306
          274.32 0 2841.117
          274.32 0 2847.213
          274.32 0 2862.453
          274.32 0 2892.933
          365.76 0 2799.630672
          365.76 0 2805.726672
          365.76 0 2810.298672
          365.76 0 2818.223472
          365.76 0 2822.795472
          365.76 0 2827.672272
          365.76 0 2831.939472
          365.76 0 2834.377872
          365.76 0 2836.816272
          365.76 0 2842.302672
          365.76 0 2845.960272
          365.76 0 2851.751472
          365.76 0 2857.237872
          365.76 0 2863.333872
          365.76 0 2878.573872
          365.76 0 2909.053872
          457.2 0 2815.754592
          457.2 0 2821.850592
          457.2 0 2826.422592
          457.2 0 2834.347392
          457.2 0 2838.919392
          457.2 0 2843.796192
          457.2 0 2848.063392
          457.2 0 2850.501792
          457.2 0 2852.940192
          457.2 0 2858.426592
          457.2 0 2862.084192
          457.2 0 2867.875392
          457.2 0 2873.361792
          457.2 0 2879.457792
          457.2 0 2894.697792
          457.2 0 2925.177792
          548.64 0 2831.878512
          548.64 0 2837.974512
          548.64 0 2842.546512
          548.64 0 2850.471312
          548.64 0 2855.043312
          548.64 0 2859.920112
          548.64 0 2864.187312
          548.64 0 2866.625712
          548.64 0 2869.064112
          548.64 0 2874.550512
          548.64 0 2878.208112
          548.64 0 2883.999312
          548.64 0 2889.485712
          548.64 0 2895.581712
          548.64 0 2910.821712
          548.64 0 2941.301712
          640.08 0 2848.002432
          640.08 0 2854.098432
          640.08 0 2858.670432
          640.08 0 2866.595232
          640.08 0 2871.167232
          640.08 0 2876.044032
          640.08 0 2880.311232
          640.08 0 2882.749632
          640.08 0 2885.188032
          640.08 0 2890.674432
          640.08 0 2894.332032
          640.08 0 2900.123232
          640.08 0 2905.609632
          640.08 0 2911.705632
          640.08 0 2926.945632
          640.08 0 2957.425632
          731.52 0 2864.126352
          731.52 0 2870.222352
          731.52 0 2874.794352
          731.52 0 2882.719152
          731.52 0 2887.291152
          731.52 0 2892.167952
          731.52 0 2896.435152
          731.52 0 2898.873552
          731.52 0 2901.311952
          731.52 0 2906.798352
          731.52 0 2910.455952
          731.52 0 2916.247152
          731.52 0 2921.733552
          731.52 0 2927.829552
          731.52 0 2943.069552
          731.52 0 2973.549552
          822.96 0 2880.247224
          822.96 0 2886.343224
          822.96 0 2890.915224
          822.96 0 2898.840024
          822.96 0 2903.412024
          822.96 0 2908.288824
          822.96 0 2912.556024
          822.96 0 2914.994424
          822.96 0 2917.432824
          822.96 0 2922.919224
          822.96 0 2926.576824
          822.96 0 2932.368024
          822.96 0 2937.854424
          822.96 0 2943.950424
          822.96 0 2959.190424
          822.96 0 2989.670424
          914.4 0 2896.371144
          914.4 0 2902.467144
          914.4 0 2907.039144
          914.4 0 2914.963944
          914.4 0 2919.535944
          914.4 0 2924.412744
          914.4 0 2928.679944
          914.4 0 2931.118344
          914.4 0 2933.556744
          914.4 0 2939.043144
          914.4 0 2942.700744
          914.4 0 2948.491944
          914.4 0 2953.978344
          914.4 0 2960.074344
          914.4 0 2975.314344
          914.4 0 3005.794344
          1005.84 0 2912.495064
          1005.84 0 2918.591064
          1005.84 0 2923.163064
          1005.84 0 2931.087864
          1005.84 0 2935.659864
          1005.84 0 2940.536664
          1005.84 0 2944.803864
          1005.84 0 2947.242264
          1005.84 0 2949.680664
          1005.84 0 2955.167064
          1005.84 0 2958.824664
          1005.84 0 2964.615864
          1005.84 0 2970.102264
          1005.84 0 2976.198264
          1005.84 0 2991.438264
          1005.84 0 3021.918264
          1097.28 0 2928.618984
          1097.28 0 2934.714984
          1097.28 0 2939.286984
          1097.28 0 2947.211784
          1097.28 0 2951.783784
          1097.28 0 2956.660584
          1097.28 0 2960.927784
          1097.28 0 2963.366184
          1097.28 0 2965.804584
          1097.28 0 2971.290984
          1097.28 0 2974.948584
          1097.28 0 2980.739784
          1097.28 0 2986.226184
          1097.28 0 2992.322184
          1097.28 0 3007.562184
          1097.28 0 3038.042184
          1188.72 0 2944.742904
          1188.72 0 2950.838904
          1188.72 0 2955.410904
          1188.72 0 2963.335704
          1188.72 0 2967.907704
          1188.72 0 2972.784504
          1188.72 0 2977.051704
          1188.72 0 2979.490104
          1188.72 0 2981.928504
          1188.72 0 2987.414904
          1188.72 0 2991.072504
          1188.72 0 2996.863704
          1188.72 0 3002.350104
          1188.72 0 3008.446104
          1188.72 0 3023.686104
          1188.72 0 3054.15696
          1280.16 0 2960.863776
          1280.16 0 2966.959776
          1280.16 0 2971.531776
          1280.16 0 2979.456576
          1280.16 0 2984.028576
          1280.16 0 2988.905376
          1280.16 0 2993.172576
          1280.16 0 2995.610976
          1280.16 0 2998.049376
          1280.16 0 3003.535776
          1280.16 0 3007.193376
          1280.16 0 3012.984576
          1280.16 0 3018.470976
          1280.16 0 3024.566976
          1280.16 0 3039.806976
          1280.16 0 3070.28088
          1371.6 0 2976.987696
          1371.6 0 2983.083696
          1371.6 0 2987.655696
          1371.6 0 2995.580496
          1371.6 0 3000.152496
          1371.6 0 3005.029296
          1371.6 0 3009.296496
          1371.6 0 3011.734896
          1371.6 0 3014.173296
          1371.6 0 3019.659696
          1371.6 0 3023.317296
          1371.6 0 3029.108496
          1371.6 0 3034.594896
          1371.6 0 3040.690896
          1371.6 0 3055.9248
          1371.6 0 3086.4048
          1463.04 0 2993.111616
          1463.04 0 2999.207616
          1463.04 0 3003.779616
          1463.04 0 3011.704416
          1463.04 0 3016.276416
          1463.04 0 3021.153216
          1463.04 0 3025.420416
          1463.04 0 3027.858816
          1463.04 0 3030.297216
          1463.04 0 3035.783616
          1463.04 0 3039.441216
          1463.04 0 3045.232416
          1463.04 0 3050.71272
          1463.04 0 3056.80872
          1463.04 0 3072.04872
          1463.04 0 3102.52872
          1554.48 0 3009.235536
          1554.48 0 3015.331536
          1554.48 0 3019.903536
          1554.48 0 3027.828336
          1554.48 0 3032.400336
          1554.48 0 3037.277136
          1554.48 0 3041.544336
          1554.48 0 3043.982736
          1554.48 0 3046.421136
          1554.48 0 3051.90144
          1554.48 0 3055.55904
          1554.48 0 3061.35024
          1554.48 0 3066.83664
          1554.48 0 3072.93264
          1554.48 0 3088.17264
          1554.48 0 3118.65264
          1645.92 0 3025.359456
          1645.92 0 3031.455456
          1645.92 0 3036.027456
          1645.92 0 3043.952256
          1645.92 0 3048.51816
          1645.92 0 3053.39496
          1645.92 0 3057.66216
          1645.92 0 3060.10056
          1645.92 0 3062.53896
          1645.92 0 3068.02536
          1645.92 0 3071.68296
          1645.92 0 3077.47416
          1645.92 0 3082.96056
          1645.92 0 3089.05656
          1645.92 0 3104.29656
          1645.92 0 3134.77656
          1737.36 0 3041.480328
          1737.36 0 3047.576328
          1737.36 0 3052.14528
          1737.36 0 3060.07008
          1737.36 0 3064.64208
          1737.36 0 3069.51888
          1737.36 0 3073.78608
          1737.36 0 3076.22448
          1737.36 0 3078.66288
          1737.36 0 3084.14928
          1737.36 0 3087.80688
          1737.36 0 3093.59808
          1737.36 0 3099.08448
          1737.36 0 3105.18048
[...]
      <CellData Scalars="pressure">
        <DataArray Name="pressure" NumberOfComponents="1" format="ascii" type="Float64">
          3589.05884962 3612.21032383 3635.36179804 3658.51108401 3681.66036999 
          3704.8118442 3727.96331841 3751.11479262 3774.2640786 3797.41336458 
          3820.56483879 3843.71631299 3866.8677872 3890.01707318 3913.16635916 
          3936.31783337 3959.46930758 3982.62078179 4004.24644901 4020.76928074 
          4037.29367448 4053.81963022 4070.34558595 4086.87154169 3589.05884962 
          3612.21032383 3635.36179804 3658.51108401 3681.66036999 3704.8118442 
          3727.96331841 3751.11479262 3774.2640786 3797.41336458 3820.56483879 
          3843.71631299 3866.8677872 3890.01707318 3913.16635916 3936.31783337 
          3959.46930758 3982.62078179 4004.24644901 4020.76928074 4037.29367448 
          4053.81963022 4070.34558595 4086.87154169 3589.05884962 3612.21032383 
          3635.36179804 3658.51108401 3681.66036999 3704.8118442 3727.96331841 
          3751.11479262 3774.2640786 3797.41336458 3820.56483879 3843.71631299 
          3866.8677872 3890.01707318 3913.16635916 3936.31783337 3959.46930758 
          3982.62078179 4004.24644901 4020.76928074 4037.29367448 4053.81963022 
          4070.34558595 4086.87154169 3589.05884962 3612.21032383 3635.36179804 
          3658.51108401 3681.66036999 3704.8118442 3727.96331841 3751.11479262 
          3774.2640786 3797.41336458 3820.56483879 3843.71631299 3866.8677872 
          3890.01707318 3913.16635916 3936.31783337 3959.46930758 3982.62078179 
          4004.24644901 4020.76928074 4037.29367448 4053.81963022 4070.34558595 
          4086.87154169 3589.05884962 3612.21032383 3635.36179804 3658.51108401 
          3681.66036999 3704.8118442 3727.96331841 3751.11479262 3774.2640786 
          3797.41336458 3820.56483879 3843.71631299 3866.8677872 3890.01707318 
          3913.16635916 3936.31783337 3959.46930758 3982.62078179 4004.24644901 
          4020.76928074 4037.29367448 4053.81963022 4070.34558595 4086.87154169 
          3589.05884962 3612.21032383 3635.36179804 3658.51108401 3681.66036999 
          3704.8118442 3727.96331841 3751.11479262 3774.2640786 3797.41336458 
          3820.56483879 3843.71631299 3866.8677872 3890.01707318 3913.16635916 
          3936.31783337 3959.46930758 3982.62078179 4004.24644901 4020.76928074 
          4037.29367448 4053.81963022 4070.34558595 4086.87154169 3589.05884962 
          3612.21032383 3635.36179804 3658.51108401 3681.66036999 3704.8118442 
          3727.96331841 3751.11479262 3774.2640786 3797.41336458 3820.56483879 
          3843.71631299 3866.8677872 3890.01707318 3913.16635916 3936.31783337 
          3959.46930758 3982.62078179 4004.24644901 4020.76928074 4037.29367448 
          4053.81963022 4070.34558595 4086.87154169 3589.05884962 3612.21032383 
          3635.36179804 3658.51108401 3681.66036999 3704.8118442 3727.96331841 
          3751.11479262 3774.2640786 3797.41336458 3820.56483879 3843.71631299 
          3866.8677872 3890.01707318 3913.16635916 3936.31783337 3959.46930758 
          3982.62078179 4004.24644901 4020.76928074 4037.29367448 4053.81963022 
          4070.34558595 4086.87154169 3589.05884962 3612.21032383 3635.36179804 
          3658.51108401 3681.66036999 3704.8118442 3727.96331841 3751.11479262 
          3774.2640786 3797.41336458 3820.56483879 3843.71631299 3866.8677872 
          3890.01707318 3913.16635916 3936.31783337 3959.46930758 3982.62078179 
          4004.24644901 4020.76928074 4037.29367448 4053.81963022 4070.34558595 
          4086.87154169 3589.05884962 3612.21032383 3635.36179804 3658.51108401 
          3681.66036999 3704.8118442 3727.96331841 3751.11479262 3774.2640786 
          3797.41336458 3820.56483879 3843.71631299 3866.8677872 3890.01707318 
          3913.16635916 3936.31783337 3959.46930758 3982.62078179 4004.24644901 
          4020.76928074 4037.29367448 4053.81963022 4070.34558595 4086.87154169 
          3589.05884962 3612.21032383 3635.36179804 3658.51108401 3681.66036999 
          3704.8118442 3727.96331841 3751.11479262 3774.2640786 3797.41336458 
          3820.56483879 3843.71631299 3866.8677872 3890.01707318 3913.16635916 
          3936.31783337 3959.46930758 3982.62078179 4004.24644901 4020.76928074 
          4037.29367448 4053.81963022 4070.34558595 4086.87154169 3589.05884962 
          3612.21032383 3635.36179804 3658.51108401 3681.66036999 3704.8118442 
          3727.96331841 3751.11479262 3774.2640786 3797.41336458 3820.56483879 
          3843.71631299 3866.8677872 3890.01707318 3913.16635916 3936.31783337 
          3959.46930758 3982.62078179 4004.24644901 4020.76928074 4037.29367448 
          4053.81963022 4070.34558595 4086.87154169 3589.05884962 3612.21032383 
          3635.36179804 3658.51108401 3681.66036999 3704.8118442 3727.96331841 
          3751.11479262 3774.2640786 3797.41336458 3820.56483879 3843.71631299 
          3866.8677872 3890.01707318 3913.16635916 3936.31783337 3959.46930758 
          3982.62078179 4004.24644901 4020.76928074 4037.29367448 4053.81963022 
          4070.34558595 4086.87154169 3589.05884962 3612.21032383 3635.36179804 
          3658.51108401 3681.66036999 3704.8118442 3727.96331841 3751.11479262 
          3774.2640786 3797.41336458 3820.56483879 3843.71631299 3866.8677872 
          3890.01707318 3913.16635916 3936.31783337 3959.46930758 3982.62078179 
          4004.24644901 4020.76928074 4037.29367448 4053.81963022 4070.34558595 
          4086.87154169 3589.05884962 3612.21032383 3635.36179804 3658.51108401 
          3681.66036999 3704.8118442 3727.96331841 3751.11479262 3774.2640786 
          3797.41336458 3820.56483879 3843.71631299 3866.8677872 3890.01707318 
          3913.16635916 3936.31783337 3959.46930758 3982.62078179 4004.24644901 
          4020.76928074 4037.29367448 4053.81963022 4070.34558595 4086.87154169 
          3589.05884962 3612.21032383 3635.36179804 3658.51108401 3681.66036999 
          3704.8118442 3727.96331841 3751.11479262 3774.2640786 3797.41336458 
          3820.56483879 3843.71631299 3866.8677872 3890.01707318 3913.16635916 
          3936.31783337 3959.46930758 3982.62078179 4004.24644901 4020.76928074 
          4037.29367448 4053.81963022 4070.34558595 4086.87154169 3589.05884962 
          3612.21032383 3635.36179804 3658.51108401 3681.66036999 3704.8118442 
          3727.96331841 3751.11479262 3774.2640786 3797.41336458 3820.56483879 
          3843.71631299 3866.8677872 3890.01707318 3913.16635916 3936.31783337 
          3959.46930758 3982.62078179 4004.24644901 4020.76928074 4037.29367448 
          4053.81963022 4070.34558595 4086.87154169 3589.05884962 3612.21032383 
          3635.36179804 3658.51108401 3681.66036999 3704.8118442 3727.96331841 
          3751.11479262 3774.2640786 3797.41336458 3820.56483879 3843.71631299 
          3866.8677872 3890.01707318 3913.16635916 3936.31783337 3959.46930758 
          3982.62078179 4004.24644901 4020.76928074 4037.29367448 4053.81963022 
          4070.34558595 4086.87154169 3589.05884962 3612.21032383 3635.36179804 
          3658.51108401 3681.66036999 3704.8118442 3727.96331841 3751.11479262 
          3774.2640786 3797.41336458 3820.56483879 3843.71631299 3866.8677872 
          3890.01707318 3913.16635916 3936.31783337 3959.46930758 3982.62078179 
          4004.24644901 4020.76928074 4037.29367448 4053.81963022 4070.34558595 
          4086.87154169 3589.05884962 3612.21032383 3635.36179804 3658.51108401 
          3681.66036999 3704.8118442 3727.96331841 3751.11479262 3774.2640786 
          3797.41336458 3820.56483879 3843.71631299 3866.8677872 3890.01707318 
          3913.16635916 3936.31783337 3959.46930758 3982.62078179 4004.24644901 
          4020.76928074 4037.29367448 4053.81963022 4070.34558595 4086.87154169 
          3589.05884962 3612.21032383 3635.36179804 3658.51108401 3681.66036999 
          3704.8118442 3727.96331841 3751.11479262 3774.2640786 3797.41336458 
          3820.56483879 3843.71631299 3866.8677872 3890.01707318 3913.16635916 
          3936.31783337 3959.46930758 3982.62078179 4004.24644901 4020.76928074 
          4037.29367448 4053.81963022 4070.34558595 4086.87154169 3589.05884962 
          3612.21032383 3635.36179804 3658.51108401 3681.66036999 3704.8118442 
          3727.96331841 3751.11479262 3774.2640786 3797.41336458 3820.56483879 
          3843.71631299 3866.8677872 3890.01707318 3913.16635916 3936.31783337 
          3959.46930758 3982.62078179 4004.24644901 4020.76928074 4037.29367448 
          4053.81963022 4070.34558595 4086.87154169 3589.05884962 3612.21032383 
          3635.36179804 3658.51108401 3681.66036999 3704.8118442 3727.96331841 
          3751.11479262 3774.2640786 3797.41336458 3820.56483879 3843.71631299 
          3866.8677872 3890.01707318 3913.16635916 3936.31783337 3959.46930758 
          3982.62078179 4004.24644901 4020.76928074 4037.29367448 4053.81963022 
          4070.34558595 4086.87154169 3589.05884962 3612.21032383 3635.36179804 
          3658.51108401 3681.66036999 3704.8118442 3727.96331841 3751.11479262 
          3774.2640786 3797.41336458 3820.56483879 3843.71631299 3866.8677872 
          3890.01707318 3913.16635916 3936.31783337 3959.46930758 3982.62078179 
          4004.24644901 4020.76928074 4037.29367448 4053.81963022 4070.34558595 
          4086.87154169 3589.05884962 3612.21032383 3635.36179804 3658.51108401 
          3681.66036999 3704.8118442 3727.96331841 3751.11479262 3774.2640786 
          3797.41336458 3820.56483879 3843.71631299 3866.8677872 3890.01707318 
          3913.16635916 3936.31783337 3959.46930758 3982.62078179 4004.24644901 
          4020.76928074 4037.29367448 4053.81963022 4070.34558595 4086.87154169 
          3596.71765489 3619.86912909 3643.0206033 3666.16988928 3689.31917526 
          3712.47064947 3735.62212368 3758.77359789 3781.92288387 3805.07216984 
          3828.22364405 3851.37511826 3874.52659247 3897.67587845 3920.82516443 
          3943.97663864 3967.12811285 3990.27958705 4009.71174844 4026.23641666 
          4042.76067307 4059.28662881 4075.81258454 4092.33854028 3596.71765489 
          3619.86912909 3643.0206033 3666.16988928 3689.31917526 3712.47064947 
          3735.62212368 3758.77359789 3781.92288387 3805.07216984 3828.22364405 
          3851.37511826 3874.52659247 3897.67587845 3920.82516443 3943.97663864 
          3967.12811285 3990.27958705 4009.71174844 4026.23641666 4042.76067307 
          4059.28662881 4075.81258454 4092.33854028 3596.71765489 3619.86912909 
          3643.0206033 3666.16988928 3689.31917526 3712.47064947 3735.62212368 
          3758.77359789 3781.92288387 3805.07216984 3828.22364405 3851.37511826 
          3874.52659247 3897.67587845 3920.82516443 3943.97663864 3967.12811285 
          3990.27958705 4009.71174844 4026.23641666 4042.76067307 4059.28662881 
          4075.81258454 4092.33854028 3596.71765489 3619.86912909 3643.0206033 
          3666.16988928 3689.31917526 3712.47064947 3735.62212368 3758.77359789 
          3781.92288387 3805.07216984 3828.22364405 3851.37511826 3874.52659247 
          3897.67587845 3920.82516443 3943.97663864 3967.12811285 3990.27958705 
          4009.71174844 4026.23641666 4042.76067307 4059.28662881 4075.81258454 
          4092.33854028 3596.71765489 3619.86912909 3643.0206033 3666.16988928 
          3689.31917526 3712.47064947 3735.62212368 3758.77359789 3781.92288387 
          3805.07216984 3828.22364405 3851.37511826 3874.52659247 3897.67587845 
          3920.82516443 3943.97663864 3967.12811285 3990.27958705 4009.71174844 
          4026.23641666 4042.76067307 4059.28662881 4075.81258454 4092.33854028 
          3596.71765489 3619.86912909 3643.0206033 3666.16988928 3689.31917526 
          3712.47064947 3735.62212368 3758.77359789 3781.92288387 3805.07216984 
          3828.22364405 3851.37511826 3874.52659247 3897.67587845 3920.82516443 
          3943.97663864 3967.12811285 3990.27958705 4009.71174844 4026.23641666 
          4042.76067307 4059.28662881 4075.81258454 4092.33854028 3596.71765489 
          3619.86912909 3643.0206033 3666.16988928 3689.31917526 3712.47064947 
          3735.62212368 3758.77359789 3781.92288387 3805.07216984 3828.22364405 
          3851.37511826 3874.52659247 3897.67587845 3920.82516443 3943.97663864 
          3967.12811285 3990.27958705 4009.71174844 4026.23641666 4042.76067307 
          4059.28662881 4075.81258454 4092.33854028 3596.71765489 3619.86912909 
          3643.0206033 3666.16988928 3689.31917526 3712.47064947 3735.62212368 
          3758.77359789 3781.92288387 3805.07216984 3828.22364405 3851.37511826 
          3874.52659247 3897.67587845 3920.82516443 3943.97663864 3967.12811285 
          3990.27958705 4009.71174844 4026.23641666 4042.76067307 4059.28662881 
          4075.81258454 4092.33854028 3596.71765489 3619.86912909 3643.0206033 
          3666.16988928 3689.31917526 3712.47064947 3735.62212368 3758.77359789 
          3781.92288387 3805.07216984 3828.22364405 3851.37511826 3874.52659247 
          3897.67587845 3920.82516443 3943.97663864 3967.12811285 3990.27958705 
          4009.71174844 4026.23641666 4042.76067307 4059.28662881 4075.81258454 
          4092.33854028 3596.71765489 3619.86912909 3643.0206033 3666.16988928 
          3689.31917526 3712.47064947 3735.62212368 3758.77359789 3781.92288387 
          3805.07216984 3828.22364405 3851.37511826 3874.52659247 3897.67587845 
          3920.82516443 3943.97663864 3967.12811285 3990.27958705 4009.71174844 
          4026.23641666 4042.76067307 4059.28662881 4075.81258454 4092.33854028 
          3596.71765489 3619.86912909 3643.0206033 3666.16988928 3689.31917526 
          3712.47064947 3735.62212368 3758.77359789 3781.92288387 3805.07216984 
          3828.22364405 3851.37511826 3874.52659247 3897.67587845 3920.82516443 
          3943.97663864 3967.12811285 3990.27958705 4009.71174844 4026.23641666 
          4042.76067307 4059.28662881 4075.81258454 4092.33854028 3596.71765489 
          3619.86912909 3643.0206033 3666.16988928 3689.31917526 3712.47064947 
          3735.62212368 3758.77359789 3781.92288387 3805.07216984 3828.22364405 
          3851.37511826 3874.52659247 3897.67587845 3920.82516443 3943.97663864 
          3967.12811285 3990.27958705 4009.71174844 4026.23641666 4042.76067307 
          4059.28662881 4075.81258454 4092.33854028 3596.71765489 3619.86912909 
          3643.0206033 3666.16988928 3689.31917526 3712.47064947 3735.62212368 
          3758.77359789 3781.92288387 3805.07216984 3828.22364405 3851.37511826 
          3874.52659247 3897.67587845 3920.82516443 3943.97663864 3967.12811285 
          3990.27958705 4009.71174844 4026.23641666 4042.76067307 4059.28662881 
          4075.81258454 4092.33854028 3596.71765489 3619.86912909 3643.0206033 
          3666.16988928 3689.31917526 3712.47064947 3735.62212368 3758.77359789 
          3781.92288387 3805.07216984 3828.22364405 3851.37511826 3874.52659247 
          3897.67587845 3920.82516443 3943.97663864 3967.12811285 3990.27958705 
          4009.71174844 4026.23641666 4042.76067307 4059.28662881 4075.81258454 
          4092.33854028 3596.71765489 3619.86912909 3643.0206033 3666.16988928 
          3689.31917526 3712.47064947 3735.62212368 3758.77359789 3781.92288387 
          3805.07216984 3828.22364405 3851.37511826 3874.52659247 3897.67587845 
          3920.82516443 3943.97663864 3967.12811285 3990.27958705 4009.71174844 
          4026.23641666 4042.76067307 4059.28662881 4075.81258454 4092.33854028 
          3596.71765489 3619.86912909 3643.0206033 3666.16988928 3689.31917526 
          3712.47064947 3735.62212368 3758.77359789 3781.92288387 3805.07216984 
          3828.22364405 3851.37511826 3874.52659247 3897.67587845 3920.82516443 
          3943.97663864 3967.12811285 3990.27958705 4009.71174844 4026.23641666 
          4042.76067307 4059.28662881 4075.81258454 4092.33854028 3596.71765489 
          3619.86912909 3643.0206033 3666.16988928 3689.31917526 3712.47064947 
          3735.62212368 3758.77359789 3781.92288387 3805.07216984 3828.22364405 
          3851.37511826 3874.52659247 3897.67587845 3920.82516443 3943.97663864 
          3967.12811285 3990.27958705 4009.71174844 4026.23641666 4042.76067307 
          4059.28662881 4075.81258454 4092.33854028 3596.71765489 3619.86912909 
          3643.0206033 3666.16988928 3689.31917526 3712.47064947 3735.62212368 
          3758.77359789 3781.92288387 3805.07216984 3828.22364405 3851.37511826 
          3874.52659247 3897.67587845 3920.82516443 3943.97663864 3967.12811285 
          3990.27958705 4009.71174844 4026.23641666 4042.76067307 4059.28662881 
          4075.81258454 4092.33854028 3596.71765489 3619.86912909 3643.0206033 
          3666.16988928 3689.31917526 3712.47064947 3735.62212368 3758.77359789 
          3781.92288387 3805.07216984 3828.22364405 3851.37511826 3874.52659247 
          3897.67587845 3920.82516443 3943.97663864 3967.12811285 3990.27958705 
          4009.71174844 4026.23641666 4042.76067307 4059.28662881 4075.81258454 
          4092.33854028 3596.71765489 3619.86912909 3643.0206033 3666.16988928 
          3689.31917526 3712.47064947 3735.62212368 3758.77359789 3781.92288387 
          3805.07216984 3828.22364405 3851.37511826 3874.52659247 3897.67587845 
          3920.82516443 3943.97663864 3967.12811285 3990.27958705 4009.71174844 
          4026.23641666 4042.76067307 4059.28662881 4075.81258454 4092.33854028 
          3596.71765489 3619.86912909 3643.0206033 3666.16988928 3689.31917526 
          3712.47064947 3735.62212368 3758.77359789 3781.92288387 3805.07216984 
          3828.22364405 3851.37511826 3874.52659247 3897.67587845 3920.82516443 
          3943.97663864 3967.12811285 3990.27958705 4009.71174844 4026.23641666 
          4042.76067307 4059.28662881 4075.81258454 4092.33854028 3596.71765489 
          3619.86912909 3643.0206033 3666.16988928 3689.31917526 3712.47064947 
          3735.62212368 3758.77359789 3781.92288387 3805.07216984 3828.22364405 
          3851.37511826 3874.52659247 3897.67587845 3920.82516443 3943.97663864 
          3967.12811285 3990.27958705 4009.71174844 4026.23641666 4042.76067307 
          4059.28662881 4075.81258454 4092.33854028 3596.71765489 3619.86912909 
          3643.0206033 3666.16988928 3689.31917526 3712.47064947 3735.62212368 
          3758.77359789 3781.92288387 3805.07216984 3828.22364405 3851.37511826 
          3874.52659247 3897.67587845 3920.82516443 3943.97663864 3967.12811285 
          3990.27958705 4009.71174844 4026.23641666 4042.76067307 4059.28662881 
          4075.81258454 4092.33854028 3596.71765489 3619.86912909 3643.0206033 
          3666.16988928 3689.31917526 3712.47064947 3735.62212368 3758.77359789 
          3781.92288387 3805.07216984 3828.22364405 3851.37511826 3874.52659247 
          3897.67587845 3920.82516443 3943.97663864 3967.12811285 3990.27958705 
          4009.71174844 4026.23641666 4042.76067307 4059.28662881 4075.81258454 
          4092.33854028 3596.71765489 3619.86912909 3643.0206033 3666.16988928 
          3689.31917526 3712.47064947 3735.62212368 3758.77359789 3781.92288387 
          3805.07216984 3828.22364405 3851.37511826 3874.52659247 3897.67587845 
          3920.82516443 3943.97663864 3967.12811285 3990.27958705 4009.71174844 
          4026.23641666 4042.76067307 4059.28662881 4075.81258454 4092.33854028 
          3605.6893982 3628.84087241 3651.99234662 3675.1416326 3698.29091857 
          3721.44239278 3744.59386699 3767.7453412 3790.89462718 3814.04391316 
          3837.19538737 3860.34686158 3883.49833578 3906.64762176 3929.79690774 
          3952.94838195 3976.09985616 3999.25133037 4016.11608395 4032.63891568 
          4049.16487142 4065.69082715 4082.21678289 4098.74273862 3605.6893982 
          3628.84087241 3651.99234662 3675.1416326 3698.29091857 3721.44239278 