PINCHOUT
--PINCHXY
--1*  1*
--/
MAPAXES
   0.58700000E+06   0.59464000E+07   0.58700000E+06   0.59465000E+07
   0.58710000E+06   0.59465000E+07
/
GRIDUNIT
 'METRES  ' '        '
/
SPECGRID
50 50 6 1 F
/
COORD
   0.00000000E+00  -0.10000000E+06   0.24443262E+04   0.00000000E+00
  -0.10000000E+06   0.25883965E+04
   0.30000005E+04  -0.10000000E+06   0.24275000E+04   0.30000005E+04
  -0.10000000E+06   0.25807273E+04
   0.60000005E+04  -0.10000000E+06   0.24068459E+04   0.60000005E+04
  -0.10000000E+06   0.25716013E+04
   0.90000010E+04  -0.10000000E+06   0.23874775E+04   0.90000010E+04
  -0.10000000E+06   0.25632073E+04
   0.12000001E+05  -0.10000000E+06   0.23704329E+04   0.12000001E+05
  -0.10000000E+06   0.25559294E+04
   0.15000000E+05  -0.10000000E+06   0.23561172E+04   0.15000000E+05
  -0.10000000E+06   0.25500818E+04
   0.18000000E+05  -0.10000000E+06   0.23435806E+04   0.18000000E+05
  -0.10000000E+06   0.25455933E+04
   0.21000000E+05  -0.10000000E+06   0.23325581E+04   0.21000000E+05
  -0.10000000E+06   0.25417754E+04
   0.24000000E+05  -0.10000000E+06   0.23226714E+04   0.24000000E+05
  -0.10000000E+06   0.25370186E+04
   0.26999998E+05  -0.10000000E+06   0.23331851E+04   0.26999998E+05
  -0.10000000E+06   0.25463809E+04
   0.30000000E+05  -0.10000000E+06   0.23775281E+04   0.30000000E+05
  -0.10000000E+06   0.25738511E+04
   0.33000000E+05  -0.10000000E+06   0.24051404E+04   0.33000000E+05
  -0.10000000E+06   0.25922456E+04
   0.36000004E+05  -0.10000000E+06   0.24076567E+04   0.36000004E+05
  -0.10000000E+06   0.25943267E+04
   0.39000004E+05  -0.10000000E+06   0.24037217E+04   0.39000004E+05
  -0.10000000E+06   0.25928865E+04
   0.42000004E+05  -0.10000000E+06   0.24000540E+04   0.42000004E+05
  -0.10000000E+06   0.25911475E+04
   0.45000000E+05  -0.10000000E+06   0.23982776E+04   0.45000000E+05
  -0.10000000E+06   0.25901646E+04
   0.48000000E+05  -0.10000000E+06   0.23897891E+04   0.48000000E+05
  -0.10000000E+06   0.25858223E+04
   0.51000000E+05  -0.10000000E+06   0.22754155E+04   0.51000000E+05
  -0.10000000E+06   0.25186167E+04
   0.53999992E+05  -0.10000000E+06   0.22718325E+04   0.53999992E+05
  -0.10000000E+06   0.25180376E+04
   0.57000000E+05  -0.10000000E+06   0.22534412E+04   0.57000000E+05
  -0.10000000E+06   0.24989580E+04
   0.60000000E+05  -0.10000000E+06   0.22448711E+04   0.60000000E+05
  -0.10000000E+06   0.24889355E+04
   0.63000000E+05  -0.10000000E+06   0.22408962E+04   0.63000000E+05
  -0.10000000E+06   0.24834956E+04
   0.65999992E+05  -0.10000000E+06   0.22385742E+04   0.65999992E+05
  -0.10000000E+06   0.24799546E+04
   0.69000000E+05  -0.10000000E+06   0.22395051E+04   0.69000000E+05
  -0.10000000E+06   0.24804165E+04
   0.72000000E+05  -0.10000000E+06   0.22406924E+04   0.72000000E+05
  -0.10000000E+06   0.24812346E+04
   0.75000000E+05  -0.10000000E+06   0.22410571E+04   0.75000000E+05
  -0.10000000E+06   0.24810229E+04
   0.78000000E+05  -0.10000000E+06   0.22372100E+04   0.78000000E+05
  -0.10000000E+06   0.24756597E+04
   0.81000008E+05  -0.10000000E+06   0.22267830E+04   0.81000008E+05
  -0.10000000E+06   0.24580603E+04
   0.84000008E+05  -0.10000000E+06   0.23147324E+04   0.84000008E+05
  -0.10000000E+06   0.25389180E+04
   0.87000016E+05  -0.10000000E+06   0.23134058E+04   0.87000016E+05
  -0.10000000E+06   0.25374395E+04
   0.90000008E+05  -0.10000000E+06   0.23135664E+04   0.90000008E+05
  -0.10000000E+06   0.25377146E+04
   0.93000016E+05  -0.10000000E+06   0.23129226E+04   0.93000016E+05
  -0.10000000E+06   0.25376062E+04
   0.96000008E+05  -0.10000000E+06   0.23110205E+04   0.96000008E+05
  -0.10000000E+06   0.25362439E+04
   0.99000008E+05  -0.10000000E+06   0.23104514E+04   0.99000008E+05
  -0.10000000E+06   0.25358977E+04
   0.10200002E+06  -0.10000000E+06   0.23111711E+04   0.10200002E+06
  -0.10000000E+06   0.25361230E+04
   0.10500002E+06  -0.10000000E+06   0.23127559E+04   0.10500002E+06
  -0.10000000E+06   0.25364912E+04
   0.10800002E+06  -0.10000000E+06   0.23152415E+04   0.10800002E+06
  -0.10000000E+06   0.25374702E+04
   0.11100003E+06  -0.10000000E+06   0.23193726E+04   0.11100003E+06
  -0.10000000E+06   0.25403901E+04
   0.11400003E+06  -0.10000000E+06   0.23249268E+04   0.11400003E+06
  -0.10000000E+06   0.25452627E+04
   0.11700002E+06  -0.10000000E+06   0.23291406E+04   0.11700002E+06
  -0.10000000E+06   0.25492100E+04
   0.12000003E+06  -0.10000000E+06   0.23322102E+04   0.12000003E+06
  -0.10000000E+06   0.25522202E+04
   0.12300002E+06  -0.10000000E+06   0.23355417E+04   0.12300002E+06
  -0.10000000E+06   0.25555364E+04
   0.12600002E+06  -0.10000000E+06   0.23400115E+04   0.12600002E+06
  -0.10000000E+06   0.25600127E+04
   0.12900002E+06  -0.10000000E+06   0.23458850E+04   0.12900002E+06
  -0.10000000E+06   0.25658955E+04
   0.13200002E+06  -0.10000000E+06   0.23526296E+04   0.13200002E+06
  -0.10000000E+06   0.25726238E+04
   0.13500002E+06  -0.10000000E+06   0.23611458E+04   0.13500002E+06
  -0.10000000E+06   0.25811301E+04
   0.13800000E+06  -0.10000000E+06   0.23719790E+04   0.13800000E+06
  -0.10000000E+06   0.25919548E+04
   0.14100000E+06  -0.10000000E+06   0.23853252E+04   0.14100000E+06
  -0.10000000E+06   0.26052966E+04
   0.14400000E+06  -0.10000000E+06   0.24008943E+04   0.14400000E+06
  -0.10000000E+06   0.26208640E+04
   0.14700000E+06  -0.10000000E+06   0.24177339E+04   0.14700000E+06
  -0.10000000E+06   0.26376909E+04
   0.15000000E+06  -0.10000000E+06   0.24311230E+04   0.15000000E+06
  -0.10000000E+06   0.26511304E+04
   0.00000000E+00  -0.98000000E+05   0.24450491E+04   0.00000000E+00
  -0.98000000E+05   0.25886521E+04
   0.30000005E+04  -0.98000000E+05   0.24211372E+04   0.30000005E+04
  -0.98000000E+05   0.25778386E+04
   0.60000000E+04  -0.98000000E+05   0.23993689E+04   0.60000000E+04
  -0.98000000E+05   0.25683379E+04
   0.90000000E+04  -0.98000000E+05   0.23799849E+04   0.90000000E+04
  -0.98000000E+05   0.25599919E+04
   0.12000000E+05  -0.98000000E+05   0.23626628E+04   0.12000000E+05
  -0.98000000E+05   0.25526221E+04
   0.15000001E+05  -0.98000000E+05   0.23485554E+04   0.15000001E+05
  -0.98000000E+05   0.25468530E+04
   0.18000002E+05  -0.98000000E+05   0.23361638E+04   0.18000002E+05
  -0.98000000E+05   0.25424844E+04
   0.21000002E+05  -0.98000000E+05   0.23254915E+04   0.21000002E+05
  -0.98000000E+05   0.25386934E+04
   0.24000002E+05  -0.98000000E+05   0.23174270E+04   0.24000002E+05
  -0.98000000E+05   0.25342671E+04
   0.26999996E+05  -0.97999992E+05   0.23478704E+04   0.26999996E+05
  -0.97999992E+05   0.25570647E+04
   0.30000000E+05  -0.98000000E+05   0.23950093E+04   0.30000000E+05
  -0.98000000E+05   0.25862703E+04
   0.33000004E+05  -0.98000000E+05   0.23998896E+04   0.33000004E+05
  -0.98000000E+05   0.25913135E+04
   0.36000004E+05  -0.98000000E+05   0.23987153E+04   0.36000004E+05
  -0.98000000E+05   0.25896494E+04
   0.39000008E+05  -0.98000000E+05   0.23903599E+04   0.39000008E+05
  -0.98000000E+05   0.25871592E+04
   0.42000004E+05  -0.98000000E+05   0.23844875E+04   0.42000004E+05
  -0.98000000E+05   0.25840872E+04
   0.45000004E+05  -0.97999992E+05   0.23840134E+04   0.45000004E+05
  -0.97999992E+05   0.25837764E+04
   0.48000000E+05  -0.98000000E+05   0.22515562E+04   0.48000000E+05
  -0.98000000E+05   0.24848333E+04
   0.51000000E+05  -0.98000000E+05   0.22570540E+04   0.51000000E+05
  -0.98000000E+05   0.24940994E+04
   0.53999996E+05  -0.98000000E+05   0.22502017E+04   0.53999996E+05
  -0.98000000E+05   0.24899294E+04
   0.56999996E+05  -0.98000000E+05   0.22355618E+04   0.56999996E+05
  -0.98000000E+05   0.24742202E+04
   0.59999996E+05  -0.98000000E+05   0.22324290E+04   0.59999996E+05
  -0.98000000E+05   0.24700620E+04
   0.63000000E+05  -0.98000000E+05   0.22305107E+04   0.63000000E+05
  -0.98000000E+05   0.24669443E+04
   0.65999992E+05  -0.98000000E+05   0.22269805E+04   0.65999992E+05
  -0.98000000E+05   0.24612366E+04
   0.68999992E+05  -0.98000000E+05   0.22290229E+04   0.68999992E+05
  -0.98000000E+05   0.24641255E+04
   0.72000000E+05  -0.98000000E+05   0.22297239E+04   0.72000000E+05
  -0.98000000E+05   0.24648342E+04
   0.74999992E+05  -0.98000000E+05   0.22300144E+04   0.74999992E+05
  -0.98000000E+05   0.24625566E+04
   0.77999992E+05  -0.98000000E+05   0.22301777E+04   0.77999992E+05
  -0.98000000E+05   0.24659006E+04
   0.81000000E+05  -0.98000000E+05   0.22216694E+04   0.81000000E+05
  -0.98000000E+05   0.24495986E+04
   0.84000000E+05  -0.98000000E+05   0.22099636E+04   0.84000000E+05
  -0.98000000E+05   0.24298582E+04
   0.87000016E+05  -0.98000000E+05   0.23079531E+04   0.87000016E+05
  -0.98000000E+05   0.25313999E+04
   0.90000008E+05  -0.98000000E+05   0.23047058E+04   0.90000008E+05
  -0.98000000E+05   0.25276375E+04
   0.93000008E+05  -0.98000000E+05   0.23008428E+04   0.93000008E+05
  -0.98000000E+05   0.25228850E+04
   0.96000008E+05  -0.98000000E+05   0.23001396E+04   0.96000008E+05
  -0.98000000E+05   0.25226755E+04
   0.99000016E+05  -0.98000000E+05   0.23005989E+04   0.99000016E+05
  -0.98000000E+05   0.25235081E+04
   0.10200002E+06  -0.98000000E+05   0.23020127E+04   0.10200002E+06
  -0.98000000E+05   0.25249119E+04
   0.10500002E+06  -0.98000000E+05   0.23037805E+04   0.10500002E+06
  -0.98000000E+05   0.25261167E+04
   0.10800002E+06  -0.98000000E+05   0.23058047E+04   0.10800002E+06
  -0.98000000E+05   0.25272739E+04
   0.11100002E+06  -0.98000000E+05   0.23091741E+04   0.11100002E+06
  -0.98000000E+05   0.25298643E+04
   0.11400003E+06  -0.98000000E+05   0.23142954E+04   0.11400003E+06
  -0.98000000E+05   0.25345215E+04
   0.11700003E+06  -0.98000000E+05   0.23183489E+04   0.11700003E+06
  -0.98000000E+05   0.25383997E+04
   0.12000003E+06  -0.98000000E+05   0.23215798E+04   0.12000003E+06
  -0.98000000E+05   0.25415605E+04
   0.12300002E+06  -0.98000000E+05   0.23255688E+04   0.12300002E+06
  -0.98000000E+05   0.25455488E+04
   0.12600002E+06  -0.98000000E+05   0.23309365E+04   0.12600002E+06
  -0.98000000E+05   0.25509199E+04
   0.12900002E+06  -0.98000000E+05   0.23377285E+04   0.12900002E+06
  -0.98000000E+05   0.25577288E+04
   0.13200002E+06  -0.98000000E+05   0.23446470E+04   0.13200002E+06
  -0.98000000E+05   0.25646467E+04
   0.13500002E+06  -0.98000000E+05   0.23533235E+04   0.13500002E+06
  -0.98000000E+05   0.25733037E+04
   0.13799998E+06  -0.98000000E+05   0.23643835E+04   0.13799998E+06
  -0.98000000E+05   0.25843650E+04
   0.14099998E+06  -0.98000000E+05   0.23781284E+04   0.14099998E+06
  -0.98000000E+05   0.25981077E+04
   0.14400000E+06  -0.98000000E+05   0.23942427E+04   0.14400000E+06
  -0.98000000E+05   0.26142422E+04
   0.14700000E+06  -0.98000000E+05   0.24120488E+04   0.14700000E+06
  -0.98000000E+05   0.26320095E+04
   0.15000000E+06  -0.98000000E+05   0.24306465E+04   0.15000000E+06
  -0.98000000E+05   0.26507449E+04
   0.00000000E+00  -0.96000000E+05   0.24342561E+04   0.00000000E+00
  -0.96000000E+05   0.25836643E+04
   0.30000005E+04  -0.96000000E+05   0.24095376E+04   0.30000005E+04
  -0.96000000E+05   0.25727673E+04
   0.60000000E+04  -0.96000000E+05   0.23878123E+04   0.60000000E+04
  -0.96000000E+05   0.25633792E+04
   0.90000000E+04  -0.96000000E+05   0.23683647E+04   0.90000000E+04
  -0.96000000E+05   0.25550686E+04
   0.12000000E+05  -0.96000000E+05   0.23504915E+04   0.12000000E+05
  -0.96000000E+05   0.25475496E+04
   0.15000001E+05  -0.96000000E+05   0.23363142E+04   0.15000001E+05
  -0.96000000E+05   0.25418418E+04
   0.18000002E+05  -0.96000000E+05   0.23241218E+04   0.18000002E+05
  -0.96000000E+05   0.25371821E+04
   0.21000002E+05  -0.96000000E+05   0.23148657E+04   0.21000002E+05
  -0.96000000E+05   0.25329971E+04
   0.24000002E+05  -0.96000000E+05   0.23088813E+04   0.24000002E+05
  -0.96000000E+05   0.25286599E+04
   0.26999996E+05  -0.95999992E+05   0.23638286E+04   0.26999996E+05
  -0.95999992E+05   0.25702087E+04
   0.30000000E+05  -0.96000000E+05   0.23760999E+04   0.30000000E+05
  -0.96000000E+05   0.25792524E+04
   0.33000004E+05  -0.96000000E+05   0.23774971E+04   0.33000004E+05
  -0.96000000E+05   0.25827605E+04
   0.36000004E+05  -0.96000000E+05   0.23719006E+04   0.36000004E+05
  -0.96000000E+05   0.25798389E+04
   0.39000008E+05  -0.96000000E+05   0.23626660E+04   0.39000008E+05
  -0.96000000E+05   0.25762732E+04
   0.42000004E+05  -0.96000000E+05   0.23550139E+04   0.42000004E+05
  -0.96000000E+05   0.25723047E+04
   0.45000004E+05  -0.95999992E+05   0.23551306E+04   0.45000004E+05
  -0.95999992E+05   0.25696262E+04
   0.48000000E+05  -0.96000000E+05   0.22129136E+04   0.48000000E+05
  -0.96000000E+05   0.24307209E+04
   0.51000000E+05  -0.96000000E+05   0.22251680E+04   0.51000000E+05
  -0.96000000E+05   0.24483816E+04
   0.53999996E+05  -0.96000000E+05   0.22187949E+04   0.53999996E+05
  -0.96000000E+05   0.24432161E+04
   0.56999996E+05  -0.96000000E+05   0.22147612E+04   0.56999996E+05
  -0.96000000E+05   0.24368196E+04
   0.59999996E+05  -0.96000000E+05   0.22144026E+04   0.59999996E+05
  -0.96000000E+05   0.24337544E+04
   0.63000000E+05  -0.96000000E+05   0.22111064E+04   0.63000000E+05
  -0.96000000E+05   0.24296836E+04
   0.65999992E+05  -0.96000000E+05   0.22114753E+04   0.65999992E+05
  -0.96000000E+05   0.24269868E+04
   0.68999992E+05  -0.96000000E+05   0.22108833E+04   0.68999992E+05
  -0.96000000E+05   0.24246887E+04
   0.72000000E+05  -0.96000000E+05   0.22076448E+04   0.72000000E+05
  -0.96000000E+05   0.24212173E+04
   0.74999992E+05  -0.96000000E+05   0.22068193E+04   0.74999992E+05
  -0.96000000E+05   0.24208904E+04
   0.77999992E+05  -0.96000000E+05   0.22085586E+04   0.77999992E+05
  -0.96000000E+05   0.24206704E+04
   0.81000000E+05  -0.96000000E+05   0.22090518E+04   0.81000000E+05
  -0.96000000E+05   0.24227947E+04
   0.84000000E+05  -0.96000000E+05   0.21982634E+04   0.84000000E+05
  -0.96000000E+05   0.24107090E+04
   0.87000016E+05  -0.96000000E+05   0.21855535E+04   0.87000016E+05
  -0.96000000E+05   0.23964749E+04
   0.90000008E+05  -0.96000000E+05   0.22847820E+04   0.90000008E+05
  -0.96000000E+05   0.25058440E+04
   0.93000008E+05  -0.96000000E+05   0.22788501E+04   0.93000008E+05
  -0.96000000E+05   0.24989614E+04
   0.96000008E+05  -0.96000000E+05   0.22746418E+04   0.96000008E+05
  -0.96000000E+05   0.24943528E+04
   0.99000016E+05  -0.96000000E+05   0.22788267E+04   0.99000016E+05
  -0.96000000E+05   0.24982019E+04
   0.10200002E+06  -0.96000000E+05   0.22823372E+04   0.10200002E+06
  -0.96000000E+05   0.25019067E+04
   0.10500002E+06  -0.96000000E+05   0.22854985E+04   0.10500002E+06
  -0.96000000E+05   0.25053079E+04
   0.10800002E+06  -0.96000000E+05   0.22878582E+04   0.10800002E+06
  -0.96000000E+05   0.25078401E+04
   0.11100002E+06  -0.96000000E+05   0.22906936E+04   0.11100002E+06
  -0.96000000E+05   0.25107434E+04
   0.11400003E+06  -0.96000000E+05   0.22935852E+04   0.11400003E+06
  -0.96000000E+05   0.25136453E+04
   0.11700003E+06  -0.96000000E+05   0.22966675E+04   0.11700003E+06
  -0.96000000E+05   0.25166997E+04
   0.12000003E+06  -0.96000000E+05   0.23001501E+04   0.12000003E+06
  -0.96000000E+05   0.25201460E+04
   0.12300002E+06  -0.96000000E+05   0.23056736E+04   0.12300002E+06
  -0.96000000E+05   0.25256533E+04
   0.12600002E+06  -0.96000000E+05   0.23128848E+04   0.12600002E+06
  -0.96000000E+05   0.25328689E+04
   0.12900002E+06  -0.96000000E+05   0.23207769E+04   0.12900002E+06
  -0.96000000E+05   0.25407932E+04
   0.13200002E+06  -0.96000000E+05   0.23290879E+04   0.13200002E+06
  -0.96000000E+05   0.25490881E+04
   0.13500002E+06  -0.96000000E+05   0.23382390E+04   0.13500002E+06
  -0.96000000E+05   0.25582390E+04
   0.13799998E+06  -0.96000000E+05   0.23494333E+04   0.13799998E+06
  -0.96000000E+05   0.25694158E+04
   0.14099998E+06  -0.96000000E+05   0.23635725E+04   0.14099998E+06
  -0.96000000E+05   0.25835537E+04
   0.14400000E+06  -0.96000000E+05   0.23802048E+04   0.14400000E+06
  -0.96000000E+05   0.26002041E+04
   0.14700000E+06  -0.96000000E+05   0.23987432E+04   0.14700000E+06
  -0.96000000E+05   0.26187412E+04
   0.15000000E+06  -0.96000000E+05   0.24184849E+04   0.15000000E+06
  -0.96000000E+05   0.26384856E+04
   0.00000000E+00  -0.94000000E+05   0.24235828E+04   0.00000000E+00
  -0.94000000E+05   0.25789617E+04
   0.30000005E+04  -0.94000000E+05   0.23981338E+04   0.30000005E+04
  -0.94000000E+05   0.25678164E+04
   0.60000000E+04  -0.94000000E+05   0.23763850E+04   0.60000000E+04
  -0.94000000E+05   0.25584497E+04
   0.90000000E+04  -0.94000000E+05   0.23563269E+04   0.90000000E+04
  -0.94000000E+05   0.25500034E+04
   0.12000000E+05  -0.94000000E+05   0.23386602E+04   0.12000000E+05
  -0.94000000E+05   0.25426621E+04
   0.15000001E+05  -0.94000000E+05   0.23248342E+04   0.15000001E+05
  -0.94000000E+05   0.25370310E+04
   0.18000002E+05  -0.94000000E+05   0.23138167E+04   0.18000002E+05
  -0.94000000E+05   0.25320872E+04
   0.21000002E+05  -0.94000000E+05   0.23063975E+04   0.21000002E+05
  -0.94000000E+05   0.25276189E+04
   0.24000002E+05  -0.94000000E+05   0.23020020E+04   0.24000002E+05
  -0.94000000E+05   0.25232073E+04
   0.26999996E+05  -0.93999992E+05   0.23480171E+04   0.26999996E+05
  -0.93999992E+05   0.25615859E+04
   0.30000000E+05  -0.94000000E+05   0.23557329E+04   0.30000000E+05
  -0.94000000E+05   0.25696555E+04
   0.33000004E+05  -0.94000000E+05   0.23565481E+04   0.33000004E+05
  -0.94000000E+05   0.25738130E+04
   0.36000004E+05  -0.94000000E+05   0.23495120E+04   0.36000004E+05
  -0.94000000E+05   0.25691829E+04
   0.39000008E+05  -0.94000000E+05   0.23435498E+04   0.39000008E+05
  -0.94000000E+05   0.25624426E+04
   0.42000004E+05  -0.94000000E+05   0.23377627E+04   0.42000004E+05
  -0.94000000E+05   0.25543489E+04
   0.45000004E+05  -0.93999992E+05   0.21754463E+04   0.45000004E+05
  -0.93999992E+05   0.23809883E+04
   0.48000000E+05  -0.94000000E+05   0.21892878E+04   0.48000000E+05
  -0.94000000E+05   0.23981880E+04
   0.51000000E+05  -0.94000000E+05   0.22031426E+04   0.51000000E+05
  -0.94000000E+05   0.24137600E+04
   0.53999996E+05  -0.94000000E+05   0.21988630E+04   0.53999996E+05
  -0.94000000E+05   0.24087727E+04
   0.56999996E+05  -0.94000000E+05   0.21921755E+04   0.56999996E+05
  -0.94000000E+05   0.24012642E+04
   0.59999996E+05  -0.94000000E+05   0.21940251E+04   0.59999996E+05
  -0.94000000E+05   0.24014067E+04
   0.63000000E+05  -0.94000000E+05   0.21865596E+04   0.63000000E+05
  -0.94000000E+05   0.23940923E+04
   0.65999992E+05  -0.94000000E+05   0.21868159E+04   0.65999992E+05
  -0.94000000E+05   0.23941414E+04
   0.68999992E+05  -0.94000000E+05   0.21850471E+04   0.68999992E+05
  -0.94000000E+05   0.23924392E+04
   0.72000000E+05  -0.94000000E+05   0.21815935E+04   0.72000000E+05
  -0.94000000E+05   0.23893318E+04
   0.74999992E+05  -0.94000000E+05   0.21814980E+04   0.74999992E+05
  -0.94000000E+05   0.23895012E+04
   0.77999992E+05  -0.94000000E+05   0.21807200E+04   0.77999992E+05
  -0.94000000E+05   0.23881804E+04
   0.81000000E+05  -0.94000000E+05   0.21809553E+04   0.81000000E+05
  -0.94000000E+05   0.23880564E+04
   0.84000000E+05  -0.94000000E+05   0.21809424E+04   0.84000000E+05
  -0.94000000E+05   0.23889189E+04
   0.87000016E+05  -0.94000000E+05   0.21733149E+04   0.87000016E+05
  -0.94000000E+05   0.23824246E+04
   0.90000008E+05  -0.94000000E+05   0.21631223E+04   0.90000008E+05
  -0.94000000E+05   0.23728716E+04
   0.93000008E+05  -0.94000000E+05   0.22599133E+04   0.93000008E+05
  -0.94000000E+05   0.24789956E+04
   0.96000008E+05  -0.94000000E+05   0.22521836E+04   0.96000008E+05
  -0.94000000E+05   0.24713762E+04
   0.99000016E+05  -0.94000000E+05   0.22547363E+04   0.99000016E+05
  -0.94000000E+05   0.24728916E+04
   0.10200002E+06  -0.94000000E+05   0.22591675E+04   0.10200002E+06
  -0.94000000E+05   0.24781536E+04
   0.10500002E+06  -0.94000000E+05   0.22620037E+04   0.10500002E+06
  -0.94000000E+05   0.24819363E+04
   0.10800002E+06  -0.94000000E+05   0.22675532E+04   0.10800002E+06
  -0.94000000E+05   0.24876377E+04
   0.11100002E+06  -0.94000000E+05   0.22731519E+04   0.11100002E+06
  -0.94000000E+05   0.24932292E+04
   0.11400003E+06  -0.94000000E+05   0.22770034E+04   0.11400003E+06
  -0.94000000E+05   0.24970205E+04
   0.11700003E+06  -0.94000000E+05   0.22803059E+04   0.11700003E+06
  -0.94000000E+05   0.25002017E+04
   0.12000003E+06  -0.94000000E+05   0.22833730E+04   0.12000003E+06
  -0.94000000E+05   0.25033052E+04
   0.12300002E+06  -0.94000000E+05   0.22889690E+04   0.12300002E+06
  -0.94000000E+05   0.25089336E+04
   0.12600002E+06  -0.94000000E+05   0.22965791E+04   0.12600002E+06
  -0.94000000E+05   0.25165632E+04
   0.12900002E+06  -0.94000000E+05   0.23050498E+04   0.12900002E+06
  -0.94000000E+05   0.25250493E+04
   0.13200002E+06  -0.94000000E+05   0.23146626E+04   0.13200002E+06
  -0.94000000E+05   0.25346626E+04
   0.13500002E+06  -0.94000000E+05   0.23247246E+04   0.13500002E+06
  -0.94000000E+05   0.25447419E+04
   0.13799998E+06  -0.94000000E+05   0.23360149E+04   0.13799998E+06
  -0.94000000E+05   0.25560320E+04
   0.14099998E+06  -0.94000000E+05   0.23502852E+04   0.14099998E+06
  -0.94000000E+05   0.25702854E+04
   0.14400000E+06  -0.94000000E+05   0.23672583E+04   0.14400000E+06
  -0.94000000E+05   0.25872578E+04
   0.14700000E+06  -0.94000000E+05   0.23863528E+04   0.14700000E+06
  -0.94000000E+05   0.26063328E+04
   0.15000000E+06  -0.94000000E+05   0.24069233E+04   0.15000000E+06
  -0.94000000E+05   0.26269795E+04
   0.00000000E+00  -0.92000000E+05   0.24133679E+04   0.00000000E+00
  -0.92000000E+05   0.25744575E+04
   0.30000005E+04  -0.92000000E+05   0.23869663E+04   0.30000005E+04
  -0.92000000E+05   0.25630037E+04
   0.60000000E+04  -0.92000000E+05   0.23645840E+04   0.60000000E+04
  -0.92000000E+05   0.25534614E+04
   0.90000000E+04  -0.92000000E+05   0.23444680E+04   0.90000000E+04
  -0.92000000E+05   0.25450442E+04
   0.12000000E+05  -0.92000000E+05   0.23274214E+04   0.12000000E+05
  -0.92000000E+05   0.25379531E+04
   0.15000001E+05  -0.92000000E+05   0.23145635E+04   0.15000001E+05
  -0.92000000E+05   0.25322842E+04
   0.18000002E+05  -0.92000000E+05   0.23052476E+04   0.18000002E+05
  -0.92000000E+05   0.25272205E+04
   0.21000002E+05  -0.92000000E+05   0.23000630E+04   0.21000002E+05
  -0.92000000E+05   0.25224072E+04
   0.24000002E+05  -0.92000000E+05   0.22968384E+04   0.24000002E+05
  -0.92000000E+05   0.25179297E+04
   0.26999996E+05  -0.91999992E+05   0.23345503E+04   0.26999996E+05
  -0.91999992E+05   0.25503472E+04
   0.30000000E+05  -0.92000000E+05   0.23409160E+04   0.30000000E+05
  -0.92000000E+05   0.25589072E+04
   0.33000004E+05  -0.92000000E+05   0.23428318E+04   0.33000004E+05
  -0.92000000E+05   0.25631870E+04
   0.36000004E+05  -0.92000000E+05   0.23393704E+04   0.36000004E+05
  -0.92000000E+05   0.25553367E+04
   0.39000008E+05  -0.92000000E+05   0.23329468E+04   0.39000008E+05
  -0.92000000E+05   0.25458503E+04
   0.42000004E+05  -0.92000000E+05   0.23272842E+04   0.42000004E+05
  -0.92000000E+05   0.25396477E+04
   0.45000004E+05  -0.91999992E+05   0.21633809E+04   0.45000004E+05
  -0.91999992E+05   0.23659419E+04
   0.48000000E+05  -0.92000000E+05   0.21706638E+04   0.48000000E+05
  -0.92000000E+05   0.23753242E+04
   0.51000000E+05  -0.92000000E+05   0.21727883E+04   0.51000000E+05
  -0.92000000E+05   0.23778777E+04
   0.53999996E+05  -0.92000000E+05   0.21744326E+04   0.53999996E+05
  -0.92000000E+05   0.23796770E+04
   0.56999996E+05  -0.92000000E+05   0.21748635E+04   0.56999996E+05
  -0.92000000E+05   0.23805259E+04
   0.59999996E+05  -0.92000000E+05   0.21742119E+04   0.59999996E+05
  -0.92000000E+05   0.23817859E+04
   0.63000000E+05  -0.92000000E+05   0.21705066E+04   0.63000000E+05
  -0.92000000E+05   0.23788787E+04
   0.65999992E+05  -0.92000000E+05   0.21660198E+04   0.65999992E+05
  -0.92000000E+05   0.23748682E+04
   0.68999992E+05  -0.92000000E+05   0.21626370E+04   0.68999992E+05
  -0.92000000E+05   0.23714404E+04
   0.72000000E+05  -0.92000000E+05   0.21587812E+04   0.72000000E+05
  -0.92000000E+05   0.23683877E+04
   0.74999992E+05  -0.92000000E+05   0.21579551E+04   0.74999992E+05
  -0.92000000E+05   0.23669299E+04
   0.77999992E+05  -0.92000000E+05   0.21570486E+04   0.77999992E+05
  -0.92000000E+05   0.23667039E+04
   0.81000000E+05  -0.92000000E+05   0.21578977E+04   0.81000000E+05
  -0.92000000E+05   0.23666233E+04
   0.84000000E+05  -0.92000000E+05   0.21581519E+04   0.84000000E+05
  -0.92000000E+05   0.23680173E+04
   0.87000016E+05  -0.92000000E+05   0.21589988E+04   0.87000016E+05
  -0.92000000E+05   0.23685540E+04
   0.90000008E+05  -0.92000000E+05   0.21529070E+04   0.90000008E+05
  -0.92000000E+05   0.23633149E+04
   0.93000008E+05  -0.92000000E+05   0.21460498E+04   0.93000008E+05
  -0.92000000E+05   0.23556858E+04
   0.96000008E+05  -0.92000000E+05   0.22467646E+04   0.96000008E+05
  -0.92000000E+05   0.24634392E+04
   0.99000016E+05  -0.92000000E+05   0.22409736E+04   0.99000016E+05
  -0.92000000E+05   0.24565635E+04
   0.10200002E+06  -0.92000000E+05   0.22428088E+04   0.10200002E+06
  -0.92000000E+05   0.24594189E+04
   0.10500002E+06  -0.92000000E+05   0.22461992E+04   0.10500002E+06
  -0.92000000E+05   0.24659939E+04
   0.10800002E+06  -0.92000000E+05   0.22516760E+04   0.10800002E+06
  -0.92000000E+05   0.24716472E+04
   0.11100002E+06  -0.92000000E+05   0.22570723E+04   0.11100002E+06
  -0.92000000E+05   0.24772744E+04
   0.11400002E+06  -0.92000000E+05   0.22617336E+04   0.11400002E+06
  -0.92000000E+05   0.24818972E+04
   0.11700002E+06  -0.92000000E+05   0.22679971E+04   0.11700002E+06
  -0.92000000E+05   0.24880044E+04
   0.12000002E+06  -0.92000000E+05   0.22721145E+04   0.12000002E+06
  -0.92000000E+05   0.24919944E+04
   0.12300002E+06  -0.92000000E+05   0.22771116E+04   0.12300002E+06
  -0.92000000E+05   0.24970022E+04
   0.12600002E+06  -0.92000000E+05   0.22835930E+04   0.12600002E+06
  -0.92000000E+05   0.25035579E+04
   0.12900002E+06  -0.92000000E+05   0.22916245E+04   0.12900002E+06
  -0.92000000E+05   0.25116243E+04
   0.13200002E+06  -0.92000000E+05   0.23019600E+04   0.13200002E+06
  -0.92000000E+05   0.25219800E+04
   0.13500002E+06  -0.92000000E+05   0.23128391E+04   0.13500002E+06
  -0.92000000E+05   0.25328755E+04
   0.13799998E+06  -0.92000000E+05   0.23246694E+04   0.13799998E+06
  -0.92000000E+05   0.25446726E+04
   0.14099998E+06  -0.92000000E+05   0.23386772E+04   0.14099998E+06
  -0.92000000E+05   0.25586772E+04
   0.14400000E+06  -0.92000000E+05   0.23556729E+04   0.14400000E+06
  -0.92000000E+05   0.25756726E+04
   0.14700000E+06  -0.92000000E+05   0.23750552E+04   0.14700000E+06
  -0.92000000E+05   0.25950723E+04
   0.15000000E+06  -0.92000000E+05   0.23962607E+04   0.15000000E+06
  -0.92000000E+05   0.26162656E+04
   0.00000000E+00  -0.90000000E+05   0.24037561E+04   0.00000000E+00
  -0.90000000E+05   0.25702300E+04
   0.30000005E+04  -0.90000000E+05   0.23766628E+04   0.30000005E+04
  -0.90000000E+05   0.25585691E+04
   0.60000000E+04  -0.90000000E+05   0.23538469E+04   0.60000000E+04
  -0.90000000E+05   0.25489451E+04
   0.90000000E+04  -0.90000000E+05   0.23336006E+04   0.90000000E+04
  -0.90000000E+05   0.25405056E+04
   0.12000000E+05  -0.90000000E+05   0.23172004E+04   0.12000000E+05
  -0.90000000E+05   0.25334343E+04
   0.15000001E+05  -0.90000000E+05   0.23055850E+04   0.15000001E+05
  -0.90000000E+05   0.25276716E+04
   0.18000002E+05  -0.90000000E+05   0.22988413E+04   0.18000002E+05
  -0.90000000E+05   0.25225010E+04
   0.21000002E+05  -0.90000000E+05   0.22958645E+04   0.21000002E+05
  -0.90000000E+05   0.25174038E+04
   0.24000002E+05  -0.90000000E+05   0.22927622E+04   0.24000002E+05
  -0.90000000E+05   0.25131606E+04
   0.26999996E+05  -0.89999992E+05   0.23283538E+04   0.26999996E+05
  -0.89999992E+05   0.25423408E+04
   0.30000000E+05  -0.90000000E+05   0.23331511E+04   0.30000000E+05
  -0.90000000E+05   0.25486270E+04
   0.33000004E+05  -0.90000000E+05   0.23360796E+04   0.33000004E+05
  -0.90000000E+05   0.25505503E+04
   0.36000004E+05  -0.90000000E+05   0.23310718E+04   0.36000004E+05
  -0.90000000E+05   0.25423149E+04
   0.39000008E+05  -0.90000000E+05   0.23192610E+04   0.39000008E+05
  -0.90000000E+05   0.25334756E+04
   0.42000004E+05  -0.90000000E+05   0.23150054E+04   0.42000004E+05
  -0.90000000E+05   0.25302122E+04
   0.45000004E+05  -0.89999992E+05   0.21580408E+04   0.45000004E+05
  -0.89999992E+05   0.23589219E+04
   0.48000000E+05  -0.90000000E+05   0.21567766E+04   0.48000000E+05
  -0.90000000E+05   0.23579468E+04
   0.51000000E+05  -0.90000000E+05   0.21573291E+04   0.51000000E+05
  -0.90000000E+05   0.23580991E+04
   0.53999996E+05  -0.90000000E+05   0.21642412E+04   0.53999996E+05
  -0.90000000E+05   0.23696357E+04
   0.56999996E+05  -0.90000000E+05   0.21628796E+04   0.56999996E+05
  -0.90000000E+05   0.23707312E+04
   0.59999996E+05  -0.90000000E+05   0.21579658E+04   0.59999996E+05
  -0.90000000E+05   0.23677383E+04
   0.63000004E+05  -0.90000000E+05   0.21524536E+04   0.63000004E+05
  -0.90000000E+05   0.23630449E+04
   0.65999992E+05  -0.90000000E+05   0.21459033E+04   0.65999992E+05
  -0.90000000E+05   0.23555642E+04
   0.68999992E+05  -0.90000000E+05   0.21415991E+04   0.68999992E+05
  -0.90000000E+05   0.23503491E+04
   0.72000000E+05  -0.90000000E+05   0.21387205E+04   0.72000000E+05
  -0.90000000E+05   0.23466843E+04
   0.74999992E+05  -0.90000000E+05   0.21384102E+04   0.74999992E+05